
Host: Benedictes-MacBook-Pro.local

Timers On : Fri Nov 13 11:01:43 2020
Timers Off: Fri Nov 13 11:01:43 2020

Wall Time:        0.00 seconds


***********************************************************

Host: Benedictes-MacBook-Pro.local

Timers On : Fri Nov 13 11:03:21 2020
Timers Off: Fri Nov 13 11:03:22 2020

Wall Time:        1.00 seconds

JK: (A|mn)  :       0.03u       0.00s   0.011006w      3 calls
JK: (A|Q)^-1/2:       0.03u       0.00s   0.029762w      3 calls
JK: (Q|mn)  :       0.00u       0.00s   0.000491w      3 calls
HF: Form H  :       0.00u       0.02s 0.00224000w      1 call
HF: Form S/X:       0.00u       0.00s 0.00012000w      1 call
HF: Guess   :       0.08u       0.00s 0.05531500w      1 call
SAD Guess   :       0.08u       0.00s 0.05324500w      1 call
JK: D       :       0.00u       0.00s   0.000132w     18 calls
JK: USO2AO  :       0.00u       0.00s   0.000233w     18 calls
JK: JK      :       0.00u       0.00s   0.005155w     18 calls
JK: J       :       0.00u       0.00s   0.001023w     18 calls
JK: J1      :       0.00u       0.00s   0.000614w     27 calls
JK: J2      :       0.00u       0.00s   0.000257w     27 calls
JK: K       :       0.00u       0.00s   0.003528w     18 calls
JK: K1      :       0.00u       0.00s   0.001690w     25 calls
JK: K2      :       0.00u       0.00s   0.001739w     25 calls
JK: AO2USO  :       0.00u       0.00s   0.000156w     18 calls
DIISManager::add_entry:       0.00u       0.00s   0.001415w     17 calls
DIISManager::extrapolate:       0.02u       0.00s   0.000691w     16 calls
DIISManager::extrapolate: bMatrix setup:       0.00u       0.00s   0.000195w     16 calls
DIISManager::extrapolate: bMatrix pseudoinverse:       0.02u       0.00s   0.000226w     16 calls
DIISManager::extrapolate: form new data:       0.00u       0.00s   0.000170w     16 calls
HF: Form G  :       0.00u       0.00s   0.003737w      9 calls
HF: Form F  :       0.00u       0.00s   0.000016w      9 calls
HF: DIIS    :       0.02u       0.00s   0.002056w      9 calls
HF: Form C  :       0.00u       0.00s   0.000530w      9 calls
HF: Form D  :       0.00u       0.00s   0.000074w      9 calls

***********************************************************

Host: Benedictes-MacBook-Pro.local

Timers On : Fri Nov 13 11:05:09 2020
Timers Off: Fri Nov 13 11:05:10 2020

Wall Time:        1.00 seconds

JK: (A|mn)  :       0.02u       0.00s   0.005487w      3 calls
JK: (A|Q)^-1/2:       0.05u       0.00s   0.023641w      3 calls
JK: (Q|mn)  :       0.00u       0.00s   0.000126w      3 calls
HF: Form H  :       0.00u       0.00s 0.00442800w      1 call
HF: Form S/X:       0.00u       0.00s 0.00013500w      1 call
HF: Guess   :       0.08u       0.00s 0.05401300w      1 call
SAD Guess   :       0.08u       0.00s 0.05187300w      1 call
JK: D       :       0.00u       0.00s   0.000091w     14 calls
JK: USO2AO  :       0.00u       0.00s   0.000129w     14 calls
JK: JK      :       0.00u       0.00s   0.001304w     14 calls
JK: J       :       0.00u       0.00s   0.000221w     14 calls
JK: J1      :       0.00u       0.00s   0.000085w     21 calls
JK: J2      :       0.00u       0.00s   0.000060w     21 calls
JK: K       :       0.00u       0.00s   0.000870w     14 calls
JK: K1      :       0.00u       0.00s   0.000648w     19 calls
JK: K2      :       0.00u       0.00s   0.000157w     19 calls
JK: AO2USO  :       0.00u       0.00s   0.000070w     14 calls
DIISManager::add_entry:       0.00u       0.00s   0.001245w     13 calls
DIISManager::extrapolate:       0.00u       0.00s   0.000415w     12 calls
DIISManager::extrapolate: bMatrix setup:       0.00u       0.00s   0.000104w     12 calls
DIISManager::extrapolate: bMatrix pseudoinverse:       0.00u       0.00s   0.000138w     12 calls
DIISManager::extrapolate: form new data:       0.00u       0.00s   0.000106w     12 calls
HF: Form G  :       0.00u       0.00s   0.001168w      7 calls
HF: Form F  :       0.00u       0.00s   0.000013w      7 calls
HF: DIIS    :       0.00u       0.00s   0.001620w      7 calls
HF: Form C  :       0.00u       0.00s   0.000293w      7 calls
HF: Form D  :       0.00u       0.00s   0.000036w      7 calls

***********************************************************

Host: Benedictes-MacBook-Pro.local

Timers On : Fri Nov 13 11:14:00 2020
Timers Off: Fri Nov 13 11:14:01 2020

Wall Time:        1.00 seconds

JK: (A|mn)  :       0.00u       0.00s   0.007194w      5 calls
JK: (A|Q)^-1/2:       0.05u       0.00s   0.038523w      5 calls
JK: (Q|mn)  :       0.00u       0.00s   0.000177w      5 calls
HF: Form H  :       0.00u       0.00s   0.004153w      2 calls
HF: Form S/X:       0.00u       0.00s   0.000241w      2 calls
HF: Guess   :       0.18u       0.00s   0.106293w      2 calls
SAD Guess   :       0.17u       0.00s   0.101598w      2 calls
JK: D       :       0.00u       0.00s   0.000198w     30 calls
JK: USO2AO  :       0.00u       0.00s   0.000324w     30 calls
JK: JK      :       0.00u       0.00s   0.002577w     30 calls
JK: J       :       0.00u       0.00s   0.000318w     21 calls
JK: J1      :       0.00u       0.00s   0.000115w     35 calls
JK: J2      :       0.00u       0.00s   0.000081w     35 calls
JK: K       :       0.00u       0.00s   0.001329w     21 calls
JK: K1      :       0.00u       0.00s   0.000986w     31 calls
JK: K2      :       0.00u       0.00s   0.000230w     31 calls
JK: AO2USO  :       0.00u       0.00s   0.000167w     30 calls
DIISManager::add_entry:       0.02u       0.00s   0.003377w     28 calls
DIISManager::extrapolate:       0.00u       0.02s   0.001012w     26 calls
DIISManager::extrapolate: bMatrix setup:       0.00u       0.02s   0.000297w     26 calls
DIISManager::extrapolate: bMatrix pseudoinverse:       0.00u       0.00s   0.000317w     26 calls
DIISManager::extrapolate: form new data:       0.00u       0.00s   0.000252w     26 calls
HF: Form G  :       0.00u       0.00s   0.002365w     16 calls
HF: Form F  :       0.00u       0.00s   0.000028w     16 calls
HF: DIIS    :       0.00u       0.02s   0.004411w     16 calls
HF: Form C  :       0.00u       0.00s   0.000696w     16 calls
HF: Form D  :       0.00u       0.00s   0.000099w     16 calls
Total PK formation time:       0.03u       0.00s 0.02062500w      1 call
PK computes JK:       0.00u       0.00s   0.000589w      9 calls
A->Wmnij    :       0.00u       0.00s   0.000250w      9 calls
E->Wmnij    :       0.00u       0.00s   0.000888w      9 calls
D->Wmnij    :       0.00u       0.00s   0.001226w      9 calls

***********************************************************

Host: Benedictes-MacBook-Pro.local

Timers On : Fri Nov 13 11:15:29 2020
Timers Off: Fri Nov 13 11:15:32 2020

Wall Time:        3.00 seconds

JK: (A|mn)  :       0.02u       0.00s   0.008844w      7 calls
JK: (A|Q)^-1/2:       0.05u       0.00s   0.059307w      7 calls
JK: (Q|mn)  :       0.00u       0.00s   0.000155w      7 calls
HF: Form H  :       0.00u       0.00s   0.006732w      3 calls
HF: Form S/X:       0.00u       0.00s   0.000384w      3 calls
HF: Guess   :       0.27u       0.02s   0.171589w      3 calls
SAD Guess   :       0.23u       0.02s   0.164337w      3 calls
JK: D       :       0.02u       0.00s   0.000337w     46 calls
JK: USO2AO  :       0.00u       0.00s   0.000517w     46 calls
JK: JK      :       0.02u       0.00s   0.003782w     46 calls
JK: J       :       0.00u       0.00s   0.000501w     28 calls
JK: J1      :       0.00u       0.00s   0.000178w     49 calls
JK: J2      :       0.00u       0.00s   0.000130w     49 calls
JK: K       :       0.00u       0.00s   0.001666w     28 calls
JK: K1      :       0.00u       0.00s   0.001173w     43 calls
JK: K2      :       0.00u       0.00s   0.000322w     43 calls
JK: AO2USO  :       0.00u       0.00s   0.000326w     46 calls
DIISManager::add_entry:       0.00u       0.02s   0.002789w     43 calls
DIISManager::extrapolate:       0.00u       0.02s   0.001815w     40 calls
DIISManager::extrapolate: bMatrix setup:       0.00u       0.00s   0.000530w     40 calls
DIISManager::extrapolate: bMatrix pseudoinverse:       0.00u       0.00s   0.000572w     40 calls
DIISManager::extrapolate: form new data:       0.00u       0.02s   0.000457w     40 calls
HF: Form G  :       0.02u       0.00s   0.003606w     25 calls
HF: Form F  :       0.00u       0.00s   0.000055w     25 calls
HF: DIIS    :       0.00u       0.03s   0.004615w     25 calls
HF: Form C  :       0.00u       0.00s   0.001220w     25 calls
HF: Form D  :       0.00u       0.00s   0.000155w     25 calls
Total PK formation time:       0.07u       0.00s   0.042246w      2 calls
PK computes JK:       0.02u       0.00s   0.001096w     18 calls
A->Wmnij    :       0.00u       0.00s   0.000347w      9 calls
E->Wmnij    :       0.00u       0.00s   0.000853w      9 calls
D->Wmnij    :       0.00u       0.00s   0.001269w      9 calls

***********************************************************

Host: vpn-client002.uio.no

Timers On : Fri Nov 13 12:16:40 2020
Timers Off: Fri Nov 13 12:16:42 2020

Wall Time:        2.00 seconds

JK: (A|mn)  :       0.00u       0.00s   0.008636w      7 calls
JK: (A|Q)^-1/2:       0.12u       0.00s   0.053030w      7 calls
JK: (Q|mn)  :       0.00u       0.00s   0.000149w      7 calls
HF: Form H  :       0.00u       0.00s   0.006892w      3 calls
HF: Form S/X:       0.00u       0.00s   0.000340w      3 calls
HF: Guess   :       0.25u       0.00s   0.157765w      3 calls
SAD Guess   :       0.25u       0.00s   0.151254w      3 calls
JK: D       :       0.00u       0.00s   0.000306w     46 calls
JK: USO2AO  :       0.00u       0.00s   0.000615w     46 calls
JK: JK      :       0.00u       0.00s   0.003733w     46 calls
JK: J       :       0.00u       0.00s   0.000457w     28 calls
JK: J1      :       0.00u       0.00s   0.000164w     49 calls
JK: J2      :       0.00u       0.00s   0.000119w     49 calls
JK: K       :       0.00u       0.00s   0.001601w     28 calls
JK: K1      :       0.00u       0.00s   0.001166w     43 calls
JK: K2      :       0.00u       0.00s   0.000274w     43 calls
JK: AO2USO  :       0.00u       0.00s   0.000339w     46 calls
DIISManager::add_entry:       0.00u       0.00s   0.004137w     43 calls
DIISManager::extrapolate:       0.00u       0.00s   0.001757w     40 calls
DIISManager::extrapolate: bMatrix setup:       0.00u       0.00s   0.000553w     40 calls
DIISManager::extrapolate: bMatrix pseudoinverse:       0.00u       0.00s   0.000541w     40 calls
DIISManager::extrapolate: form new data:       0.00u       0.00s   0.000422w     40 calls
HF: Form G  :       0.00u       0.00s   0.004014w     25 calls
HF: Form F  :       0.00u       0.00s   0.000054w     25 calls
HF: DIIS    :       0.00u       0.00s   0.006114w     25 calls
HF: Form C  :       0.00u       0.00s   0.001245w     25 calls
HF: Form D  :       0.00u       0.00s   0.000162w     25 calls
Total PK formation time:       0.08u       0.00s   0.041489w      2 calls
PK computes JK:       0.00u       0.00s   0.001207w     18 calls
A->Wmnij    :       0.00u       0.00s   0.000257w      9 calls
E->Wmnij    :       0.00u       0.00s   0.001066w      9 calls
D->Wmnij    :       0.00u       0.00s   0.001360w      9 calls

***********************************************************

Host: Benedictes-MacBook-Pro.local

Timers On : Fri Nov 13 15:30:41 2020
Timers Off: Fri Nov 13 15:30:48 2020

Wall Time:        6.59 seconds

                                                       Time (seconds)
Module                                       User      System        Wall        Calls

--------------------------------------------------------------------------------------

**************************************************************************************

Host: Benedictes-MacBook-Pro.local

Timers On : Fri Nov 13 15:31:22 2020
Timers Off: Fri Nov 13 15:31:22 2020

Wall Time:        0.49 seconds

                                                       Time (seconds)
Module                                       User      System        Wall        Calls

--------------------------------------------------------------------------------------

**************************************************************************************

Host: Benedictes-MacBook-Pro.local

Timers On : Fri Nov 13 15:31:43 2020
Timers Off: Fri Nov 13 15:31:46 2020

Wall Time:        3.00 seconds

JK: (A|mn)  :       0.02u       0.00s   0.008773w      7 calls
JK: (A|Q)^-1/2:       0.10u       0.00s   0.053666w      7 calls
JK: (Q|mn)  :       0.00u       0.00s   0.000153w      7 calls
HF: Form H  :       0.00u       0.02s   0.007706w      3 calls
HF: Form S/X:       0.00u       0.00s   0.000463w      3 calls
HF: Guess   :       0.28u       0.00s   0.171018w      3 calls
SAD Guess   :       0.27u       0.00s   0.163161w      3 calls
JK: D       :       0.00u       0.00s   0.000366w     46 calls
JK: USO2AO  :       0.00u       0.00s   0.000694w     46 calls
JK: JK      :       0.00u       0.00s   0.003599w     46 calls
JK: J       :       0.00u       0.00s   0.000492w     28 calls
JK: J1      :       0.00u       0.00s   0.000206w     49 calls
JK: J2      :       0.00u       0.00s   0.000117w     49 calls
JK: K       :       0.00u       0.00s   0.001504w     28 calls
JK: K1      :       0.00u       0.00s   0.001084w     43 calls
JK: K2      :       0.00u       0.00s   0.000276w     43 calls
JK: AO2USO  :       0.00u       0.00s   0.000492w     46 calls
DIISManager::add_entry:       0.00u       0.00s   0.004482w     43 calls
DIISManager::extrapolate:       0.00u       0.00s   0.001975w     40 calls
DIISManager::extrapolate: bMatrix setup:       0.00u       0.00s   0.000606w     40 calls
DIISManager::extrapolate: bMatrix pseudoinverse:       0.00u       0.00s   0.000615w     40 calls
DIISManager::extrapolate: form new data:       0.00u       0.00s   0.000467w     40 calls
HF: Form G  :       0.00u       0.00s   0.003741w     25 calls
HF: Form F  :       0.00u       0.00s   0.000055w     25 calls
HF: DIIS    :       0.00u       0.00s   0.006493w     25 calls
HF: Form C  :       0.00u       0.00s   0.001267w     25 calls
HF: Form D  :       0.00u       0.00s   0.000208w     25 calls
Total PK formation time:       0.07u       0.00s   0.042008w      2 calls
PK computes JK:       0.00u       0.00s   0.001104w     18 calls
A->Wmnij    :       0.00u       0.00s   0.000255w      9 calls
E->Wmnij    :       0.00u       0.00s   0.000777w      9 calls
D->Wmnij    :       0.00u       0.00s   0.001147w      9 calls

***********************************************************

Host: Benedictes-MacBook-Pro.local

Timers On : Fri Nov 13 18:09:59 2020
Timers Off: Fri Nov 13 18:09:59 2020

Wall Time:        0.00 seconds


***********************************************************

Host: Benedictes-MacBook-Pro.local

Timers On : Fri Nov 13 18:10:19 2020
Timers Off: Fri Nov 13 18:10:20 2020

Wall Time:        1.00 seconds


***********************************************************

Host: Benedictes-MacBook-Pro.local

Timers On : Fri Nov 13 18:16:11 2020
Timers Off: Fri Nov 13 18:16:12 2020

Wall Time:        1.00 seconds


***********************************************************

Host: Benedictes-MacBook-Pro.local

Timers On : Fri Nov 13 18:16:27 2020
Timers Off: Fri Nov 13 18:16:29 2020

Wall Time:        2.00 seconds

JK: (A|mn)  :       0.03u       0.00s   0.008912w      7 calls
JK: (A|Q)^-1/2:       0.05u       0.00s   0.054752w      7 calls
JK: (Q|mn)  :       0.00u       0.00s   0.000150w      7 calls
HF: Form H  :       0.00u       0.00s   0.006649w      3 calls
HF: Form S/X:       0.00u       0.00s   0.000393w      3 calls
HF: Guess   :       0.27u       0.00s   0.168281w      3 calls
SAD Guess   :       0.25u       0.00s   0.160606w      3 calls
JK: D       :       0.00u       0.00s   0.000348w     49 calls
JK: USO2AO  :       0.00u       0.00s   0.000523w     49 calls
JK: JK      :       0.03u       0.00s   0.004154w     49 calls
JK: J       :       0.00u       0.00s   0.000461w     29 calls
JK: J1      :       0.00u       0.00s   0.000148w     50 calls
JK: J2      :       0.00u       0.00s   0.000137w     50 calls
JK: K       :       0.02u       0.00s   0.001578w     29 calls
JK: K1      :       0.02u       0.00s   0.001165w     44 calls
JK: K2      :       0.00u       0.00s   0.000263w     44 calls
JK: AO2USO  :       0.00u       0.00s   0.000298w     49 calls
DIISManager::add_entry:       0.00u       0.00s   0.004150w     46 calls
DIISManager::extrapolate:       0.00u       0.00s   0.001974w     43 calls
DIISManager::extrapolate: bMatrix setup:       0.00u       0.00s   0.000615w     43 calls
DIISManager::extrapolate: bMatrix pseudoinverse:       0.00u       0.00s   0.000590w     43 calls
DIISManager::extrapolate: form new data:       0.00u       0.00s   0.000517w     43 calls
HF: Form G  :       0.02u       0.00s   0.004143w     28 calls
HF: Form F  :       0.00u       0.00s   0.000056w     28 calls
HF: DIIS    :       0.00u       0.00s   0.006163w     28 calls
HF: Form C  :       0.02u       0.00s   0.001354w     28 calls
HF: Form D  :       0.00u       0.00s   0.000171w     28 calls
Total PK formation time:       0.07u       0.00s   0.041944w      2 calls
PK computes JK:       0.02u       0.00s   0.001627w     20 calls
A->Wmnij    :       0.00u       0.00s   0.000239w     12 calls
E->Wmnij    :       0.00u       0.00s   0.000853w     12 calls
D->Wmnij    :       0.00u       0.00s   0.001282w     12 calls

***********************************************************

Host: Benedictes-MacBook-Pro.local

Timers On : Fri Nov 13 18:17:53 2020
Timers Off: Fri Nov 13 18:17:55 2020

Wall Time:        2.00 seconds

JK: (A|mn)  :       0.00u       0.00s   0.009225w      7 calls
JK: (A|Q)^-1/2:       0.12u       0.00s   0.053548w      7 calls
JK: (Q|mn)  :       0.00u       0.00s   0.000153w      7 calls
HF: Form H  :       0.00u       0.03s   0.007169w      3 calls
HF: Form S/X:       0.00u       0.00s   0.000451w      3 calls
HF: Guess   :       0.25u       0.02s   0.157962w      3 calls
SAD Guess   :       0.25u       0.02s   0.151124w      3 calls
JK: D       :       0.00u       0.00s   0.000329w     49 calls
JK: USO2AO  :       0.00u       0.00s   0.000639w     49 calls
JK: JK      :       0.00u       0.00s   0.004507w     49 calls
JK: J       :       0.00u       0.00s   0.000543w     29 calls
JK: J1      :       0.00u       0.00s   0.000217w     50 calls
JK: J2      :       0.00u       0.00s   0.000150w     50 calls
JK: K       :       0.00u       0.00s   0.001816w     29 calls
JK: K1      :       0.00u       0.00s   0.001305w     44 calls
JK: K2      :       0.00u       0.00s   0.000347w     44 calls
JK: AO2USO  :       0.00u       0.00s   0.000420w     49 calls
DIISManager::add_entry:       0.00u       0.00s   0.003362w     46 calls
DIISManager::extrapolate:       0.00u       0.00s   0.002355w     43 calls
DIISManager::extrapolate: bMatrix setup:       0.00u       0.00s   0.000757w     43 calls
DIISManager::extrapolate: bMatrix pseudoinverse:       0.00u       0.00s   0.000747w     43 calls
DIISManager::extrapolate: form new data:       0.00u       0.00s   0.000562w     43 calls
HF: Form G  :       0.00u       0.00s   0.004985w     28 calls
HF: Form F  :       0.00u       0.00s   0.000067w     28 calls
HF: DIIS    :       0.00u       0.00s   0.006053w     28 calls
HF: Form C  :       0.00u       0.00s   0.001398w     28 calls
HF: Form D  :       0.00u       0.00s   0.000239w     28 calls
Total PK formation time:       0.07u       0.00s   0.041108w      2 calls
PK computes JK:       0.00u       0.00s   0.001569w     20 calls
A->Wmnij    :       0.00u       0.00s   0.000198w     12 calls
E->Wmnij    :       0.00u       0.00s   0.000700w     12 calls
D->Wmnij    :       0.00u       0.00s   0.001049w     12 calls

***********************************************************

Host: Benedictes-MacBook-Pro.local

Timers On : Fri Nov 13 18:18:08 2020
Timers Off: Fri Nov 13 18:18:10 2020

Wall Time:        2.00 seconds

JK: (A|mn)  :       0.02u       0.00s   0.008591w      7 calls
JK: (A|Q)^-1/2:       0.08u       0.00s   0.053494w      7 calls
JK: (Q|mn)  :       0.00u       0.00s   0.000162w      7 calls
HF: Form H  :       0.00u       0.02s   0.007251w      3 calls
HF: Form S/X:       0.00u       0.00s   0.000385w      3 calls
HF: Guess   :       0.27u       0.00s   0.160662w      3 calls
SAD Guess   :       0.25u       0.00s   0.152942w      3 calls
JK: D       :       0.00u       0.00s   0.000421w     48 calls
JK: USO2AO  :       0.00u       0.00s   0.001072w     48 calls
JK: JK      :       0.00u       0.00s   0.004571w     48 calls
JK: J       :       0.00u       0.00s   0.000519w     28 calls
JK: J1      :       0.00u       0.00s   0.000211w     49 calls
JK: J2      :       0.00u       0.00s   0.000136w     49 calls
JK: K       :       0.00u       0.00s   0.001573w     28 calls
JK: K1      :       0.00u       0.00s   0.001119w     43 calls
JK: K2      :       0.00u       0.00s   0.000307w     43 calls
JK: AO2USO  :       0.00u       0.00s   0.000353w     48 calls
DIISManager::add_entry:       0.00u       0.03s   0.004571w     45 calls
DIISManager::extrapolate:       0.00u       0.00s   0.002424w     42 calls
DIISManager::extrapolate: bMatrix setup:       0.00u       0.00s   0.000752w     42 calls
DIISManager::extrapolate: bMatrix pseudoinverse:       0.00u       0.00s   0.000792w     42 calls
DIISManager::extrapolate: form new data:       0.00u       0.00s   0.000578w     42 calls
HF: Form G  :       0.00u       0.00s   0.005440w     27 calls
HF: Form F  :       0.00u       0.00s   0.000072w     27 calls
HF: DIIS    :       0.00u       0.03s   0.007290w     27 calls
HF: Form C  :       0.02u       0.00s   0.001807w     27 calls
HF: Form D  :       0.00u       0.00s   0.000310w     27 calls
Total PK formation time:       0.07u       0.00s   0.042286w      2 calls
PK computes JK:       0.00u       0.00s   0.001874w     20 calls
A->Wmnij    :       0.00u       0.00s   0.000189w      9 calls
E->Wmnij    :       0.00u       0.00s   0.000725w      9 calls
D->Wmnij    :       0.00u       0.00s   0.001009w      9 calls

***********************************************************

Host: Benedictes-MacBook-Pro.local

Timers On : Fri Nov 13 18:19:45 2020
Timers Off: Fri Nov 13 18:19:46 2020

Wall Time:        1.00 seconds


***********************************************************

Host: Benedictes-MacBook-Pro.local

Timers On : Fri Nov 13 18:20:07 2020
Timers Off: Fri Nov 13 18:20:09 2020

Wall Time:        2.00 seconds

JK: (A|mn)  :       0.02u       0.00s   0.008760w      7 calls
JK: (A|Q)^-1/2:       0.08u       0.00s   0.054182w      7 calls
JK: (Q|mn)  :       0.00u       0.00s   0.000174w      7 calls
HF: Form H  :       0.00u       0.00s   0.007647w      3 calls
HF: Form S/X:       0.00u       0.00s   0.000528w      3 calls
HF: Guess   :       0.25u       0.00s   0.163118w      3 calls
SAD Guess   :       0.25u       0.00s   0.155283w      3 calls
JK: D       :       0.00u       0.00s   0.000531w     49 calls
JK: USO2AO  :       0.02u       0.00s   0.000859w     49 calls
JK: JK      :       0.02u       0.00s   0.005421w     49 calls
JK: J       :       0.00u       0.00s   0.000471w     29 calls
JK: J1      :       0.00u       0.00s   0.000160w     50 calls
JK: J2      :       0.00u       0.00s   0.000123w     50 calls
JK: K       :       0.00u       0.00s   0.001598w     29 calls
JK: K1      :       0.00u       0.00s   0.001166w     44 calls
JK: K2      :       0.00u       0.00s   0.000281w     44 calls
JK: AO2USO  :       0.00u       0.00s   0.000569w     49 calls
DIISManager::add_entry:       0.00u       0.00s   0.002967w     46 calls
DIISManager::extrapolate:       0.00u       0.00s   0.002131w     43 calls
DIISManager::extrapolate: bMatrix setup:       0.00u       0.00s   0.000626w     43 calls
DIISManager::extrapolate: bMatrix pseudoinverse:       0.00u       0.00s   0.000659w     43 calls
DIISManager::extrapolate: form new data:       0.00u       0.00s   0.000567w     43 calls
HF: Form G  :       0.03u       0.00s   0.005485w     28 calls
HF: Form F  :       0.00u       0.00s   0.000061w     28 calls
HF: DIIS    :       0.00u       0.00s   0.005177w     28 calls
HF: Form C  :       0.00u       0.00s   0.001795w     28 calls
HF: Form D  :       0.00u       0.00s   0.000187w     28 calls
Total PK formation time:       0.07u       0.00s   0.045056w      2 calls
PK computes JK:       0.02u       0.00s   0.002565w     20 calls
A->Wmnij    :       0.00u       0.00s   0.000245w     12 calls
E->Wmnij    :       0.02u       0.00s   0.000791w     12 calls
D->Wmnij    :       0.00u       0.00s   0.001364w     12 calls

***********************************************************

Host: Benedictes-MacBook-Pro.local

Timers On : Fri Nov 13 18:21:48 2020
Timers Off: Fri Nov 13 18:21:50 2020

Wall Time:        2.00 seconds

JK: (A|mn)  :       0.02u       0.00s   0.009886w      7 calls
JK: (A|Q)^-1/2:       0.08u       0.00s   0.056081w      7 calls
JK: (Q|mn)  :       0.02u       0.00s   0.000158w      7 calls
HF: Form H  :       0.00u       0.00s   0.006309w      3 calls
HF: Form S/X:       0.00u       0.00s   0.000397w      3 calls
HF: Guess   :       0.27u       0.00s   0.166880w      3 calls
SAD Guess   :       0.25u       0.00s   0.159392w      3 calls
JK: D       :       0.00u       0.00s   0.000573w     49 calls
JK: USO2AO  :       0.00u       0.00s   0.000646w     49 calls
JK: JK      :       0.00u       0.00s   0.005481w     49 calls
JK: J       :       0.00u       0.00s   0.000520w     29 calls
JK: J1      :       0.00u       0.00s   0.000208w     50 calls
JK: J2      :       0.00u       0.00s   0.000136w     50 calls
JK: K       :       0.00u       0.00s   0.001996w     29 calls
JK: K1      :       0.00u       0.00s   0.001489w     44 calls
JK: K2      :       0.00u       0.00s   0.000315w     44 calls
JK: AO2USO  :       0.00u       0.00s   0.000476w     49 calls
DIISManager::add_entry:       0.00u       0.00s   0.003925w     46 calls
DIISManager::extrapolate:       0.00u       0.00s   0.002208w     43 calls
DIISManager::extrapolate: bMatrix setup:       0.00u       0.00s   0.000692w     43 calls
DIISManager::extrapolate: bMatrix pseudoinverse:       0.00u       0.00s   0.000678w     43 calls
DIISManager::extrapolate: form new data:       0.00u       0.00s   0.000555w     43 calls
HF: Form G  :       0.00u       0.00s   0.006744w     28 calls
HF: Form F  :       0.00u       0.00s   0.000089w     28 calls
HF: DIIS    :       0.00u       0.00s   0.006488w     28 calls
HF: Form C  :       0.00u       0.00s   0.001785w     28 calls
HF: Form D  :       0.00u       0.00s   0.000216w     28 calls
Total PK formation time:       0.07u       0.00s   0.042211w      2 calls
PK computes JK:       0.00u       0.00s   0.002172w     20 calls
A->Wmnij    :       0.00u       0.00s   0.000210w     12 calls
E->Wmnij    :       0.00u       0.00s   0.000792w     12 calls
D->Wmnij    :       0.00u       0.00s   0.001101w     12 calls

***********************************************************

Host: Benedictes-MacBook-Pro.local

Timers On : Fri Nov 13 18:28:05 2020
Timers Off: Fri Nov 13 18:28:08 2020

Wall Time:        3.00 seconds

JK: (A|mn)  :       0.02u       0.00s   0.009273w      7 calls
JK: (A|Q)^-1/2:       0.12u       0.00s   0.054289w      7 calls
JK: (Q|mn)  :       0.00u       0.00s   0.000159w      7 calls
HF: Form H  :       0.00u       0.00s   0.006402w      3 calls
HF: Form S/X:       0.00u       0.00s   0.000449w      3 calls
HF: Guess   :       0.25u       0.00s   0.159676w      3 calls
SAD Guess   :       0.25u       0.00s   0.152641w      3 calls
JK: D       :       0.00u       0.00s   0.000286w     49 calls
JK: USO2AO  :       0.00u       0.00s   0.000440w     49 calls
JK: JK      :       0.00u       0.00s   0.003404w     49 calls
JK: J       :       0.00u       0.00s   0.000394w     29 calls
JK: J1      :       0.00u       0.00s   0.000136w     50 calls
JK: J2      :       0.00u       0.00s   0.000103w     50 calls
JK: K       :       0.00u       0.00s   0.001581w     29 calls
JK: K1      :       0.00u       0.00s   0.001177w     44 calls
JK: K2      :       0.00u       0.00s   0.000256w     44 calls
JK: AO2USO  :       0.00u       0.00s   0.000287w     49 calls
DIISManager::add_entry:       0.00u       0.00s   0.002569w     46 calls
DIISManager::extrapolate:       0.00u       0.00s   0.001922w     43 calls
DIISManager::extrapolate: bMatrix setup:       0.00u       0.00s   0.000627w     43 calls
DIISManager::extrapolate: bMatrix pseudoinverse:       0.00u       0.00s   0.000566w     43 calls
DIISManager::extrapolate: form new data:       0.00u       0.00s   0.000471w     43 calls
HF: Form G  :       0.00u       0.00s   0.003291w     28 calls
HF: Form F  :       0.00u       0.00s   0.000060w     28 calls
HF: DIIS    :       0.00u       0.00s   0.004677w     28 calls
HF: Form C  :       0.00u       0.00s   0.001153w     28 calls
HF: Form D  :       0.00u       0.00s   0.000143w     28 calls
Total PK formation time:       0.08u       0.00s   0.046520w      2 calls
PK computes JK:       0.00u       0.00s   0.000964w     20 calls
A->Wmnij    :       0.00u       0.00s   0.000228w     12 calls
E->Wmnij    :       0.00u       0.00s   0.001392w     12 calls
D->Wmnij    :       0.00u       0.00s   0.001440w     12 calls

***********************************************************

Host: Benedictes-MacBook-Pro.local

Timers On : Fri Nov 13 18:28:29 2020
Timers Off: Fri Nov 13 18:28:30 2020

Wall Time:        1.00 seconds

JK: (A|mn)  :       0.02u       0.00s   0.005358w      3 calls
JK: (A|Q)^-1/2:       0.05u       0.00s   0.024102w      3 calls
JK: (Q|mn)  :       0.00u       0.00s   0.000181w      3 calls
HF: Form H  :       0.00u       0.02s 0.00197800w      1 call
HF: Form S/X:       0.00u       0.00s 0.00011200w      1 call
HF: Guess   :       0.08u       0.00s 0.05223100w      1 call
SAD Guess   :       0.08u       0.00s 0.05017800w      1 call
JK: D       :       0.00u       0.00s   0.000085w     15 calls
JK: USO2AO  :       0.00u       0.00s   0.000117w     15 calls
JK: JK      :       0.00u       0.00s   0.001271w     15 calls
JK: J       :       0.00u       0.00s   0.000195w     15 calls
JK: J1      :       0.00u       0.00s   0.000069w     22 calls
JK: J2      :       0.00u       0.00s   0.000051w     22 calls
JK: K       :       0.00u       0.00s   0.000881w     15 calls
JK: K1      :       0.00u       0.00s   0.000669w     20 calls
JK: K2      :       0.00u       0.00s   0.000146w     20 calls
JK: AO2USO  :       0.00u       0.00s   0.000075w     15 calls
DIISManager::add_entry:       0.00u       0.00s   0.000705w     14 calls
DIISManager::extrapolate:       0.00u       0.00s   0.000468w     13 calls
DIISManager::extrapolate: bMatrix setup:       0.00u       0.00s   0.000137w     13 calls
DIISManager::extrapolate: bMatrix pseudoinverse:       0.00u       0.00s   0.000138w     13 calls
DIISManager::extrapolate: form new data:       0.00u       0.00s   0.000117w     13 calls
HF: Form G  :       0.00u       0.00s   0.001143w      8 calls
HF: Form F  :       0.00u       0.00s   0.000012w      8 calls
HF: DIIS    :       0.00u       0.00s   0.001154w      8 calls
HF: Form C  :       0.00u       0.00s   0.000315w      8 calls
HF: Form D  :       0.00u       0.00s   0.000037w      8 calls

***********************************************************

Host: Benedictes-MacBook-Pro.local

Timers On : Sun Nov 15 14:12:35 2020
Timers Off: Sun Nov 15 14:12:36 2020

Wall Time:        1.00 seconds

JK: (A|mn)  :       0.02u       0.00s   0.005504w      3 calls
JK: (A|Q)^-1/2:       0.05u       0.00s   0.028910w      3 calls
JK: (Q|mn)  :       0.00u       0.00s   0.000312w      3 calls
HF: Form H  :       0.00u       0.00s 0.00167500w      1 call
HF: Form S/X:       0.00u       0.00s 0.00010700w      1 call
HF: Guess   :       0.08u       0.00s 0.05424600w      1 call
SAD Guess   :       0.08u       0.00s 0.05221400w      1 call
JK: D       :       0.00u       0.00s   0.000112w     15 calls
JK: USO2AO  :       0.00u       0.00s   0.000423w     15 calls
JK: JK      :       0.00u       0.00s   0.002909w     15 calls
JK: J       :       0.00u       0.00s   0.000235w     15 calls
JK: J1      :       0.00u       0.00s   0.000088w     22 calls
JK: J2      :       0.00u       0.00s   0.000063w     22 calls
JK: K       :       0.00u       0.00s   0.002401w     15 calls
JK: K1      :       0.00u       0.00s   0.000771w     20 calls
JK: K2      :       0.00u       0.00s   0.001545w     20 calls
JK: AO2USO  :       0.00u       0.00s   0.000100w     15 calls
DIISManager::add_entry:       0.00u       0.00s   0.001475w     14 calls
DIISManager::extrapolate:       0.00u       0.00s   0.000573w     13 calls
DIISManager::extrapolate: bMatrix setup:       0.00u       0.00s   0.000153w     13 calls
DIISManager::extrapolate: bMatrix pseudoinverse:       0.00u       0.00s   0.000186w     13 calls
DIISManager::extrapolate: form new data:       0.00u       0.00s   0.000139w     13 calls
HF: Form G  :       0.00u       0.00s   0.001711w      8 calls
HF: Form F  :       0.00u       0.00s   0.000017w      8 calls
HF: DIIS    :       0.00u       0.00s   0.001990w      8 calls
HF: Form C  :       0.00u       0.00s   0.000384w      8 calls
HF: Form D  :       0.00u       0.00s   0.000046w      8 calls

***********************************************************

Host: Benedictes-MacBook-Pro.local

Timers On : Sun Nov 15 14:16:37 2020
Timers Off: Sun Nov 15 14:16:56 2020

Wall Time:       19.00 seconds


***********************************************************

Host: Benedictes-MacBook-Pro.local

Timers On : Sun Nov 15 14:22:08 2020
Timers Off: Sun Nov 15 14:22:08 2020

Wall Time:        0.00 seconds

JK: (A|mn)  :       0.00u       0.00s   0.009125w      3 calls
JK: (A|Q)^-1/2:       0.05u       0.00s   0.031867w      3 calls
JK: (Q|mn)  :       0.02u       0.00s   0.000180w      3 calls
HF: Form H  :       0.00u       0.00s 0.00308000w      1 call
HF: Form S/X:       0.00u       0.00s 0.00016200w      1 call
HF: Guess   :       0.10u       0.00s 0.06874600w      1 call
SAD Guess   :       0.10u       0.00s 0.06580700w      1 call
JK: D       :       0.00u       0.00s   0.000125w     14 calls
JK: USO2AO  :       0.00u       0.00s   0.000197w     14 calls
JK: JK      :       0.02u       0.00s   0.002012w     14 calls
JK: J       :       0.02u       0.00s   0.000317w     14 calls
JK: J1      :       0.02u       0.00s   0.000119w     21 calls
JK: J2      :       0.00u       0.00s   0.000095w     21 calls
JK: K       :       0.00u       0.00s   0.001392w     14 calls
JK: K1      :       0.00u       0.00s   0.001087w     19 calls
JK: K2      :       0.00u       0.00s   0.000220w     19 calls
JK: AO2USO  :       0.00u       0.00s   0.000113w     14 calls
DIISManager::add_entry:       0.00u       0.00s   0.001260w     13 calls
DIISManager::extrapolate:       0.00u       0.00s   0.000620w     12 calls
DIISManager::extrapolate: bMatrix setup:       0.00u       0.00s   0.000159w     12 calls
DIISManager::extrapolate: bMatrix pseudoinverse:       0.00u       0.00s   0.000203w     12 calls
DIISManager::extrapolate: form new data:       0.00u       0.00s   0.000156w     12 calls
HF: Form G  :       0.00u       0.00s   0.001780w      7 calls
HF: Form F  :       0.00u       0.00s   0.000018w      7 calls
HF: DIIS    :       0.00u       0.00s   0.001850w      7 calls
HF: Form C  :       0.00u       0.00s   0.000492w      7 calls
HF: Form D  :       0.00u       0.00s   0.000057w      7 calls

***********************************************************

Host: Benedictes-MacBook-Pro.local

Timers On : Sun Nov 15 14:22:42 2020
Timers Off: Sun Nov 15 14:22:42 2020

Wall Time:        0.00 seconds

JK: (A|mn)  :       0.02u       0.00s   0.005593w      3 calls
JK: (A|Q)^-1/2:       0.02u       0.00s   0.024850w      3 calls
JK: (Q|mn)  :       0.00u       0.00s   0.000106w      3 calls
HF: Form H  :       0.00u       0.00s 0.00176600w      1 call
HF: Form S/X:       0.00u       0.00s 0.00009800w      1 call
HF: Guess   :       0.10u       0.00s 0.05497800w      1 call
SAD Guess   :       0.10u       0.00s 0.05245600w      1 call
JK: D       :       0.00u       0.00s   0.000080w     14 calls
JK: USO2AO  :       0.00u       0.00s   0.000114w     14 calls
JK: JK      :       0.00u       0.00s   0.001157w     14 calls
JK: J       :       0.00u       0.00s   0.000183w     14 calls
JK: J1      :       0.00u       0.00s   0.000065w     21 calls
JK: J2      :       0.00u       0.00s   0.000050w     21 calls
JK: K       :       0.00u       0.00s   0.000798w     14 calls
JK: K1      :       0.00u       0.00s   0.000598w     19 calls
JK: K2      :       0.00u       0.00s   0.000132w     19 calls
JK: AO2USO  :       0.00u       0.00s   0.000059w     14 calls
DIISManager::add_entry:       0.00u       0.00s   0.000656w     13 calls
DIISManager::extrapolate:       0.02u       0.00s   0.000393w     12 calls
DIISManager::extrapolate: bMatrix setup:       0.00u       0.00s   0.000103w     12 calls
DIISManager::extrapolate: bMatrix pseudoinverse:       0.00u       0.00s   0.000121w     12 calls
DIISManager::extrapolate: form new data:       0.02u       0.00s   0.000101w     12 calls
HF: Form G  :       0.00u       0.00s   0.000995w      7 calls
HF: Form F  :       0.00u       0.00s   0.000011w      7 calls
HF: DIIS    :       0.00u       0.00s   0.001017w      7 calls
HF: Form C  :       0.00u       0.00s   0.000275w      7 calls
HF: Form D  :       0.00u       0.00s   0.000032w      7 calls

***********************************************************

Host: Benedictes-MacBook-Pro.local

Timers On : Sun Nov 15 14:36:02 2020
Timers Off: Sun Nov 15 14:36:04 2020

Wall Time:        2.00 seconds

JK: (A|mn)  :       0.02u       0.00s   0.008378w      5 calls
JK: (A|Q)^-1/2:       0.07u       0.00s   0.039191w      5 calls
JK: (Q|mn)  :       0.00u       0.00s   0.000136w      5 calls
HF: Form H  :       0.00u       0.00s   0.004378w      2 calls
HF: Form S/X:       0.00u       0.00s   0.000204w      2 calls
HF: Guess   :       0.18u       0.00s   0.106918w      2 calls
SAD Guess   :       0.17u       0.00s   0.102816w      2 calls
JK: D       :       0.00u       0.00s   0.000268w     30 calls
JK: USO2AO  :       0.00u       0.00s   0.000446w     30 calls
JK: JK      :       0.00u       0.00s   0.003459w     30 calls
JK: J       :       0.00u       0.00s   0.000484w     21 calls
JK: J1      :       0.00u       0.00s   0.000167w     35 calls
JK: J2      :       0.00u       0.00s   0.000156w     35 calls
JK: K       :       0.00u       0.00s   0.001595w     21 calls
JK: K1      :       0.00u       0.00s   0.001258w     31 calls
JK: K2      :       0.00u       0.00s   0.000206w     31 calls
JK: AO2USO  :       0.00u       0.00s   0.000325w     30 calls
DIISManager::add_entry:       0.00u       0.00s   0.003299w     28 calls
DIISManager::extrapolate:       0.00u       0.00s   0.001356w     26 calls
DIISManager::extrapolate: bMatrix setup:       0.00u       0.00s   0.000371w     26 calls
DIISManager::extrapolate: bMatrix pseudoinverse:       0.00u       0.00s   0.000441w     26 calls
DIISManager::extrapolate: form new data:       0.00u       0.00s   0.000369w     26 calls
HF: Form G  :       0.00u       0.00s   0.003647w     16 calls
HF: Form F  :       0.00u       0.00s   0.000041w     16 calls
HF: DIIS    :       0.00u       0.00s   0.004765w     16 calls
HF: Form C  :       0.00u       0.00s   0.000975w     16 calls
HF: Form D  :       0.00u       0.00s   0.000127w     16 calls
Total PK formation time:       0.03u       0.00s 0.02092700w      1 call
PK computes JK:       0.00u       0.00s   0.000972w      9 calls
A->Wmnij    :       0.00u       0.00s   0.000305w      9 calls
E->Wmnij    :       0.00u       0.00s   0.000781w      9 calls
D->Wmnij    :       0.00u       0.00s   0.001135w      9 calls

***********************************************************

Host: Benedictes-MacBook-Pro.local

Timers On : Sun Nov 15 14:36:49 2020
Timers Off: Sun Nov 15 14:36:52 2020

Wall Time:        3.00 seconds

JK: (A|mn)  :       0.03u       0.00s   0.008614w      7 calls
JK: (A|Q)^-1/2:       0.07u       0.00s   0.054853w      7 calls
JK: (Q|mn)  :       0.00u       0.00s   0.000167w      7 calls
HF: Form H  :       0.00u       0.00s   0.006693w      3 calls
HF: Form S/X:       0.00u       0.00s   0.000517w      3 calls
HF: Guess   :       0.28u       0.00s   0.163950w      3 calls
SAD Guess   :       0.25u       0.00s   0.155250w      3 calls
JK: D       :       0.00u       0.00s   0.000293w     46 calls
JK: USO2AO  :       0.00u       0.00s   0.000512w     46 calls
JK: JK      :       0.02u       0.00s   0.003254w     46 calls
JK: J       :       0.00u       0.00s   0.000439w     28 calls
JK: J1      :       0.00u       0.00s   0.000135w     49 calls
JK: J2      :       0.00u       0.00s   0.000137w     49 calls
JK: K       :       0.02u       0.00s   0.001456w     28 calls
JK: K1      :       0.02u       0.00s   0.001075w     43 calls
JK: K2      :       0.00u       0.00s   0.000235w     43 calls
JK: AO2USO  :       0.00u       0.00s   0.000241w     46 calls
DIISManager::add_entry:       0.00u       0.00s   0.002294w     43 calls
DIISManager::extrapolate:       0.00u       0.00s   0.001591w     40 calls
DIISManager::extrapolate: bMatrix setup:       0.00u       0.00s   0.000491w     40 calls
DIISManager::extrapolate: bMatrix pseudoinverse:       0.00u       0.00s   0.000484w     40 calls
DIISManager::extrapolate: form new data:       0.00u       0.00s   0.000386w     40 calls
HF: Form G  :       0.00u       0.00s   0.003031w     25 calls
HF: Form F  :       0.00u       0.00s   0.000044w     25 calls
HF: DIIS    :       0.00u       0.00s   0.003896w     25 calls
HF: Form C  :       0.00u       0.00s   0.001028w     25 calls
HF: Form D  :       0.00u       0.00s   0.000135w     25 calls
Total PK formation time:       0.07u       0.00s   0.042699w      2 calls
PK computes JK:       0.00u       0.00s   0.000893w     18 calls
A->Wmnij    :       0.02u       0.00s   0.000224w      9 calls
E->Wmnij    :       0.00u       0.00s   0.000765w      9 calls
D->Wmnij    :       0.00u       0.00s   0.001094w      9 calls

***********************************************************

Host: Benedictes-MacBook-Pro.local

Timers On : Sun Nov 15 14:42:29 2020
Timers Off: Sun Nov 15 14:42:31 2020

Wall Time:        2.00 seconds

JK: (A|mn)  :       0.02u       0.00s   0.007176w      5 calls
JK: (A|Q)^-1/2:       0.07u       0.00s   0.038292w      5 calls
JK: (Q|mn)  :       0.00u       0.00s   0.000125w      5 calls
HF: Form H  :       0.00u       0.00s   0.004176w      2 calls
HF: Form S/X:       0.00u       0.00s   0.000222w      2 calls
HF: Guess   :       0.17u       0.00s   0.103855w      2 calls
SAD Guess   :       0.17u       0.00s   0.099037w      2 calls
JK: D       :       0.00u       0.00s   0.000181w     30 calls
JK: USO2AO  :       0.00u       0.00s   0.000264w     30 calls
JK: JK      :       0.00u       0.00s   0.002089w     30 calls
JK: J       :       0.00u       0.00s   0.000282w     21 calls
JK: J1      :       0.00u       0.00s   0.000090w     35 calls
JK: J2      :       0.00u       0.00s   0.000076w     35 calls
JK: K       :       0.00u       0.00s   0.001121w     21 calls
JK: K1      :       0.00u       0.00s   0.000839w     31 calls
JK: K2      :       0.00u       0.00s   0.000175w     31 calls
JK: AO2USO  :       0.00u       0.00s   0.000187w     30 calls
DIISManager::add_entry:       0.00u       0.03s   0.001395w     28 calls
DIISManager::extrapolate:       0.00u       0.00s   0.000963w     26 calls
DIISManager::extrapolate: bMatrix setup:       0.00u       0.00s   0.000287w     26 calls
DIISManager::extrapolate: bMatrix pseudoinverse:       0.00u       0.00s   0.000292w     26 calls
DIISManager::extrapolate: form new data:       0.00u       0.00s   0.000235w     26 calls
HF: Form G  :       0.00u       0.00s   0.001938w     16 calls
HF: Form F  :       0.00u       0.00s   0.000031w     16 calls
HF: DIIS    :       0.00u       0.03s   0.002393w     16 calls
HF: Form C  :       0.00u       0.00s   0.000624w     16 calls
HF: Form D  :       0.00u       0.00s   0.000079w     16 calls
Total PK formation time:       0.03u       0.00s 0.02057300w      1 call
PK computes JK:       0.00u       0.00s   0.000376w      9 calls
A->Wmnij    :       0.00u       0.00s   0.003741w      9 calls
E->Wmnij    :       0.00u       0.00s   0.003266w      9 calls
D->Wmnij    :       0.00u       0.00s   0.001446w      9 calls

***********************************************************

Host: Benedictes-MacBook-Pro.local

Timers On : Tue Nov 17 17:01:32 2020
Timers Off: Tue Nov 17 17:01:33 2020

Wall Time:        0.85 seconds

                                                       Time (seconds)
Module                                       User      System        Wall        Calls

--------------------------------------------------------------------------------------

**************************************************************************************

Host: Benedictes-MacBook-Pro.local

Timers On : Tue Nov 17 17:01:44 2020
Timers Off: Tue Nov 17 17:01:46 2020

Wall Time:        2.00 seconds

JK: (A|mn)  :       0.00u       0.00s   0.013592w      8 calls
JK: (A|Q)^-1/2:       0.12u       0.00s   0.068506w      8 calls
JK: (Q|mn)  :       0.00u       0.00s   0.000268w      8 calls
HF: Form H  :       0.00u       0.03s   0.008134w      3 calls
HF: Form S/X:       0.00u       0.00s   0.000590w      3 calls
HF: Guess   :       0.25u       0.00s   0.161713w      3 calls
SAD Guess   :       0.25u       0.00s   0.154185w      3 calls
JK: D       :       0.00u       0.00s   0.000353w     46 calls
JK: USO2AO  :       0.00u       0.00s   0.000767w     46 calls
JK: JK      :       0.02u       0.00s   0.006310w     46 calls
JK: J       :       0.00u       0.00s   0.000802w     37 calls
JK: J1      :       0.00u       0.00s   0.000334w     58 calls
JK: J2      :       0.00u       0.00s   0.000225w     58 calls
JK: K       :       0.02u       0.00s   0.004223w     37 calls
JK: K1      :       0.00u       0.00s   0.002138w     52 calls
JK: K2      :       0.02u       0.00s   0.001863w     52 calls
JK: AO2USO  :       0.00u       0.00s   0.000304w     46 calls
DIISManager::add_entry:       0.00u       0.00s   0.003570w     43 calls
DIISManager::extrapolate:       0.02u       0.00s   0.001845w     40 calls
DIISManager::extrapolate: bMatrix setup:       0.02u       0.00s   0.000537w     40 calls
DIISManager::extrapolate: bMatrix pseudoinverse:       0.00u       0.00s   0.000577w     40 calls
DIISManager::extrapolate: form new data:       0.00u       0.00s   0.000457w     40 calls
HF: Form G  :       0.02u       0.00s   0.005154w     25 calls
HF: Form F  :       0.00u       0.00s   0.000051w     25 calls
HF: DIIS    :       0.02u       0.00s   0.005549w     25 calls
HF: Form C  :       0.00u       0.00s   0.001254w     25 calls
HF: Form D  :       0.00u       0.00s   0.000160w     25 calls
Total PK formation time:       0.05u       0.00s 0.02125900w      1 call
PK computes JK:       0.00u       0.00s   0.000535w      9 calls
A->Wmnij    :       0.00u       0.00s   0.000379w      9 calls
E->Wmnij    :       0.00u       0.00s   0.001118w      9 calls
D->Wmnij    :       0.00u       0.00s   0.002772w      9 calls
DFMP2 Singles:       0.00u       0.00s 0.00006400w      1 call
DFMP2 Aia   :       0.02u       0.00s 0.01889700w      1 call
DFMP2 (A|mn):       0.00u       0.00s 0.00200900w      1 call
DFMP2 (A|mn)C_mi:       0.00u       0.00s 0.00016800w      1 call
DFMP2 (A|mi)C_na:       0.00u       0.00s 0.00001300w      1 call
DFMP2 Aia Write:       0.00u       0.00s 0.00006200w      1 call
DFMP2 Qia   :       0.02u       0.00s 0.00951700w      1 call
DFMP2 Metric:       0.02u       0.00s 0.00878100w      1 call
DFMP2 Aia Read:       0.00u       0.00s 0.00011600w      1 call
DFMP2 (Q|A)(A|ia):       0.00u       0.00s 0.00002200w      1 call
DFMP2 Qia Write:       0.00u       0.00s 0.00003800w      1 call
DFMP2 Energy:       0.00u       0.00s 0.00055800w      1 call
DFMP2 Qia Read:       0.00u       0.00s   0.000014w      2 calls

***********************************************************

Host: Benedictes-MacBook-Pro.local

Timers On : Mon Nov 23 13:11:14 2020
Timers Off: Mon Nov 23 13:11:15 2020

Wall Time:        0.84 seconds

                                                       Time (seconds)
Module                                       User      System        Wall        Calls

--------------------------------------------------------------------------------------

**************************************************************************************

Host: Benedictes-MacBook-Pro.local

Timers On : Wed Nov 25 22:26:26 2020
Timers Off: Wed Nov 25 22:26:27 2020

Wall Time:        1.03 seconds

                                                       Time (seconds)
Module                                       User      System        Wall        Calls

--------------------------------------------------------------------------------------

**************************************************************************************

Host: Benedictes-MacBook-Pro.local

Timers On : Wed Nov 25 22:26:41 2020
Timers Off: Wed Nov 25 22:26:43 2020

Wall Time:        2.00 seconds

JK: (A|mn)  :       0.02u       0.00s   0.012600w      8 calls
JK: (A|Q)^-1/2:       0.10u       0.00s   0.069595w      8 calls
JK: (Q|mn)  :       0.00u       0.00s   0.000297w      8 calls
HF: Form H  :       0.00u       0.00s   0.006184w      3 calls
HF: Form S/X:       0.00u       0.00s   0.000364w      3 calls
HF: Guess   :       0.27u       0.00s   0.165709w      3 calls
SAD Guess   :       0.25u       0.00s   0.158633w      3 calls
JK: D       :       0.00u       0.00s   0.000475w     46 calls
JK: USO2AO  :       0.00u       0.00s   0.000986w     46 calls
JK: JK      :       0.02u       0.00s   0.007175w     46 calls
JK: J       :       0.00u       0.00s   0.001296w     37 calls
JK: J1      :       0.00u       0.00s   0.000823w     58 calls
JK: J2      :       0.00u       0.00s   0.000209w     58 calls
JK: K       :       0.02u       0.00s   0.004121w     37 calls
JK: K1      :       0.02u       0.00s   0.002255w     52 calls
JK: K2      :       0.00u       0.00s   0.001660w     52 calls
JK: AO2USO  :       0.00u       0.00s   0.000313w     46 calls
DIISManager::add_entry:       0.00u       0.00s   0.003290w     43 calls
DIISManager::extrapolate:       0.00u       0.00s   0.001863w     40 calls
DIISManager::extrapolate: bMatrix setup:       0.00u       0.00s   0.000527w     40 calls
DIISManager::extrapolate: bMatrix pseudoinverse:       0.00u       0.00s   0.000607w     40 calls
DIISManager::extrapolate: form new data:       0.00u       0.00s   0.000469w     40 calls
HF: Form G  :       0.02u       0.00s   0.005812w     25 calls
HF: Form F  :       0.00u       0.00s   0.000061w     25 calls
HF: DIIS    :       0.00u       0.00s   0.005140w     25 calls
HF: Form C  :       0.00u       0.00s   0.001244w     25 calls
HF: Form D  :       0.00u       0.00s   0.000169w     25 calls
Total PK formation time:       0.03u       0.00s 0.02096200w      1 call
PK computes JK:       0.00u       0.00s   0.001049w      9 calls
A->Wmnij    :       0.00u       0.00s   0.002062w      9 calls
E->Wmnij    :       0.00u       0.00s   0.000967w      9 calls
D->Wmnij    :       0.00u       0.02s   0.001255w      9 calls
DFMP2 Singles:       0.00u       0.00s 0.00007500w      1 call
DFMP2 Aia   :       0.02u       0.00s 0.01704700w      1 call
DFMP2 (A|mn):       0.00u       0.00s 0.00167700w      1 call
DFMP2 (A|mn)C_mi:       0.00u       0.00s 0.00017600w      1 call
DFMP2 (A|mi)C_na:       0.00u       0.00s 0.00001400w      1 call
DFMP2 Aia Write:       0.00u       0.00s 0.00005600w      1 call
DFMP2 Qia   :       0.02u       0.00s 0.00975600w      1 call
DFMP2 Metric:       0.02u       0.00s 0.00899500w      1 call
DFMP2 Aia Read:       0.00u       0.00s 0.00011500w      1 call
DFMP2 (Q|A)(A|ia):       0.00u       0.00s 0.00002400w      1 call
DFMP2 Qia Write:       0.00u       0.00s 0.00004200w      1 call
DFMP2 Energy:       0.00u       0.00s 0.00052900w      1 call
DFMP2 Qia Read:       0.00u       0.00s   0.000015w      2 calls

***********************************************************

Host: Benedictes-MacBook-Pro.local

Timers On : Wed Nov 25 22:47:49 2020
Timers Off: Wed Nov 25 22:47:51 2020

Wall Time:        2.00 seconds

JK: (A|mn)  :       0.02u       0.02s   0.020844w      8 calls
JK: (A|Q)^-1/2:       0.10u       0.00s   0.067726w      8 calls
JK: (Q|mn)  :       0.00u       0.00s   0.000357w      8 calls
HF: Form H  :       0.00u       0.00s   0.012522w      3 calls
HF: Form S/X:       0.00u       0.00s   0.000497w      3 calls
HF: Guess   :       0.25u       0.02s   0.180404w      3 calls
SAD Guess   :       0.25u       0.02s   0.173492w      3 calls
JK: D       :       0.00u       0.00s   0.000356w     46 calls
JK: USO2AO  :       0.00u       0.00s   0.000542w     46 calls
JK: JK      :       0.02u       0.00s   0.004704w     46 calls
JK: J       :       0.00u       0.00s   0.000648w     37 calls
JK: J1      :       0.00u       0.00s   0.000231w     58 calls
JK: J2      :       0.00u       0.00s   0.000176w     58 calls
JK: K       :       0.00u       0.00s   0.002733w     37 calls
JK: K1      :       0.00u       0.00s   0.002075w     52 calls
JK: K2      :       0.00u       0.00s   0.000461w     52 calls
JK: AO2USO  :       0.02u       0.00s   0.000271w     46 calls
DIISManager::add_entry:       0.00u       0.00s   0.003334w     43 calls
DIISManager::extrapolate:       0.00u       0.00s   0.001764w     40 calls
DIISManager::extrapolate: bMatrix setup:       0.00u       0.00s   0.000495w     40 calls
DIISManager::extrapolate: bMatrix pseudoinverse:       0.00u       0.00s   0.000597w     40 calls
DIISManager::extrapolate: form new data:       0.00u       0.00s   0.000419w     40 calls
HF: Form G  :       0.03u       0.00s   0.004163w     25 calls
HF: Form F  :       0.00u       0.00s   0.000048w     25 calls
HF: DIIS    :       0.00u       0.00s   0.004984w     25 calls
HF: Form C  :       0.00u       0.00s   0.001074w     25 calls
HF: Form D  :       0.00u       0.00s   0.000147w     25 calls
Total PK formation time:       0.05u       0.00s 0.03416900w      1 call
PK computes JK:       0.00u       0.00s   0.000632w      9 calls
A->Wmnij    :       0.00u       0.00s   0.000197w      9 calls
E->Wmnij    :       0.00u       0.00s   0.000645w      9 calls
D->Wmnij    :       0.00u       0.00s   0.000967w      9 calls
DFMP2 Singles:       0.00u       0.00s 0.00007800w      1 call
DFMP2 Aia   :       0.03u       0.00s 0.01759600w      1 call
DFMP2 (A|mn):       0.00u       0.00s 0.00169900w      1 call
DFMP2 (A|mn)C_mi:       0.00u       0.00s 0.00020600w      1 call
DFMP2 (A|mi)C_na:       0.00u       0.00s 0.00003900w      1 call
DFMP2 Aia Write:       0.00u       0.00s 0.00006500w      1 call
DFMP2 Qia   :       0.00u       0.00s 0.00996100w      1 call
DFMP2 Metric:       0.00u       0.00s 0.00919700w      1 call
DFMP2 Aia Read:       0.00u       0.00s 0.00011800w      1 call
DFMP2 (Q|A)(A|ia):       0.00u       0.00s 0.00002300w      1 call
DFMP2 Qia Write:       0.00u       0.00s 0.00004600w      1 call
DFMP2 Energy:       0.00u       0.00s 0.00054700w      1 call
DFMP2 Qia Read:       0.00u       0.00s   0.000015w      2 calls

***********************************************************

Host: Benedictes-MacBook-Pro.local

Timers On : Wed Nov 25 22:49:22 2020
Timers Off: Wed Nov 25 22:49:23 2020

Wall Time:        1.00 seconds

JK: (A|mn)  :       0.02u       0.00s   0.012899w      8 calls
JK: (A|Q)^-1/2:       0.12u       0.00s   0.063747w      8 calls
JK: (Q|mn)  :       0.00u       0.00s   0.000274w      8 calls
HF: Form H  :       0.00u       0.00s   0.008957w      3 calls
HF: Form S/X:       0.00u       0.00s   0.000386w      3 calls
HF: Guess   :       0.27u       0.00s   0.159079w      3 calls
SAD Guess   :       0.25u       0.00s   0.152991w      3 calls
JK: D       :       0.00u       0.00s   0.000292w     46 calls
JK: USO2AO  :       0.00u       0.00s   0.000461w     46 calls
JK: JK      :       0.02u       0.00s   0.003794w     46 calls
JK: J       :       0.00u       0.00s   0.000538w     37 calls
JK: J1      :       0.00u       0.00s   0.000185w     58 calls
JK: J2      :       0.00u       0.00s   0.000146w     58 calls
JK: K       :       0.02u       0.00s   0.002217w     37 calls
JK: K1      :       0.02u       0.00s   0.001687w     52 calls
JK: K2      :       0.00u       0.00s   0.000354w     52 calls
JK: AO2USO  :       0.00u       0.00s   0.000282w     46 calls
DIISManager::add_entry:       0.00u       0.00s   0.002405w     43 calls
DIISManager::extrapolate:       0.00u       0.02s   0.001601w     40 calls
DIISManager::extrapolate: bMatrix setup:       0.00u       0.00s   0.000486w     40 calls
DIISManager::extrapolate: bMatrix pseudoinverse:       0.00u       0.00s   0.000495w     40 calls
DIISManager::extrapolate: form new data:       0.00u       0.00s   0.000398w     40 calls
HF: Form G  :       0.00u       0.00s   0.003646w     25 calls
HF: Form F  :       0.00u       0.00s   0.000051w     25 calls
HF: DIIS    :       0.00u       0.02s   0.004060w     25 calls
HF: Form C  :       0.00u       0.00s   0.001007w     25 calls
HF: Form D  :       0.00u       0.00s   0.000136w     25 calls
Total PK formation time:       0.03u       0.00s 0.02070700w      1 call
PK computes JK:       0.00u       0.00s   0.000463w      9 calls
A->Wmnij    :       0.00u       0.00s   0.000174w      9 calls
E->Wmnij    :       0.00u       0.00s   0.000609w      9 calls
D->Wmnij    :       0.00u       0.00s   0.000904w      9 calls
DFMP2 Singles:       0.00u       0.00s 0.00006900w      1 call
DFMP2 Aia   :       0.03u       0.00s 0.01664400w      1 call
DFMP2 (A|mn):       0.00u       0.00s 0.00170300w      1 call
DFMP2 (A|mn)C_mi:       0.00u       0.00s 0.00016500w      1 call
DFMP2 (A|mi)C_na:       0.00u       0.00s 0.00001200w      1 call
DFMP2 Aia Write:       0.00u       0.00s 0.00011300w      1 call
DFMP2 Qia   :       0.02u       0.00s 0.01001100w      1 call
DFMP2 Metric:       0.02u       0.00s 0.00914800w      1 call
DFMP2 Aia Read:       0.00u       0.00s 0.00011800w      1 call
DFMP2 (Q|A)(A|ia):       0.00u       0.00s 0.00002800w      1 call
DFMP2 Qia Write:       0.00u       0.00s 0.00004500w      1 call
DFMP2 Energy:       0.00u       0.00s 0.00062400w      1 call
DFMP2 Qia Read:       0.00u       0.00s   0.000017w      2 calls

***********************************************************

Host: Benedictes-MacBook-Pro.local

Timers On : Wed Nov 25 22:51:47 2020
Timers Off: Wed Nov 25 22:51:48 2020

Wall Time:        1.00 seconds

JK: (A|mn)  :       0.02u       0.00s   0.012932w      8 calls
JK: (A|Q)^-1/2:       0.12u       0.00s   0.064379w      8 calls
JK: (Q|mn)  :       0.00u       0.00s   0.000290w      8 calls
HF: Form H  :       0.00u       0.00s   0.006956w      3 calls
HF: Form S/X:       0.00u       0.00s   0.000395w      3 calls
HF: Guess   :       0.25u       0.02s   0.162656w      3 calls
SAD Guess   :       0.25u       0.02s   0.155703w      3 calls
JK: D       :       0.00u       0.00s   0.000401w     46 calls
JK: USO2AO  :       0.00u       0.00s   0.000481w     46 calls
JK: JK      :       0.02u       0.00s   0.004250w     46 calls
JK: J       :       0.00u       0.00s   0.000578w     37 calls
JK: J1      :       0.00u       0.00s   0.000211w     58 calls
JK: J2      :       0.00u       0.00s   0.000141w     58 calls
JK: K       :       0.02u       0.00s   0.002350w     37 calls
JK: K1      :       0.02u       0.00s   0.001784w     52 calls
JK: K2      :       0.00u       0.00s   0.000384w     52 calls
JK: AO2USO  :       0.00u       0.00s   0.000312w     46 calls
DIISManager::add_entry:       0.00u       0.00s   0.002806w     43 calls
DIISManager::extrapolate:       0.00u       0.00s   0.001732w     40 calls
DIISManager::extrapolate: bMatrix setup:       0.00u       0.00s   0.000507w     40 calls
DIISManager::extrapolate: bMatrix pseudoinverse:       0.00u       0.00s   0.000556w     40 calls
DIISManager::extrapolate: form new data:       0.00u       0.00s   0.000433w     40 calls
HF: Form G  :       0.02u       0.00s   0.004058w     25 calls
HF: Form F  :       0.00u       0.00s   0.000049w     25 calls
HF: DIIS    :       0.00u       0.00s   0.004559w     25 calls
HF: Form C  :       0.00u       0.00s   0.001084w     25 calls
HF: Form D  :       0.00u       0.00s   0.000142w     25 calls
Total PK formation time:       0.05u       0.00s 0.02088100w      1 call
PK computes JK:       0.00u       0.00s   0.000735w      9 calls
A->Wmnij    :       0.00u       0.00s   0.000173w      9 calls
E->Wmnij    :       0.00u       0.02s   0.000919w      9 calls
D->Wmnij    :       0.00u       0.00s   0.000974w      9 calls
DFMP2 Singles:       0.00u       0.00s 0.00009800w      1 call
DFMP2 Aia   :       0.02u       0.02s 0.01695700w      1 call
DFMP2 (A|mn):       0.00u       0.00s 0.00171300w      1 call
DFMP2 (A|mn)C_mi:       0.00u       0.00s 0.00019100w      1 call
DFMP2 (A|mi)C_na:       0.00u       0.00s 0.00001300w      1 call
DFMP2 Aia Write:       0.00u       0.00s 0.00004700w      1 call
DFMP2 Qia   :       0.02u       0.00s 0.00979000w      1 call
DFMP2 Metric:       0.02u       0.00s 0.00885000w      1 call
DFMP2 Aia Read:       0.00u       0.00s 0.00012000w      1 call
DFMP2 (Q|A)(A|ia):       0.00u       0.00s 0.00002600w      1 call
DFMP2 Qia Write:       0.00u       0.00s 0.00004200w      1 call
DFMP2 Energy:       0.00u       0.00s 0.00072400w      1 call
DFMP2 Qia Read:       0.00u       0.00s   0.000032w      2 calls

***********************************************************

Host: Benedictes-MacBook-Pro.local

Timers On : Wed Nov 25 23:00:34 2020
Timers Off: Wed Nov 25 23:00:36 2020

Wall Time:        2.00 seconds

JK: (A|mn)  :       0.03u       0.00s   0.022445w      8 calls
JK: (A|Q)^-1/2:       0.12u       0.00s   0.085769w      8 calls
JK: (Q|mn)  :       0.00u       0.00s   0.000276w      8 calls
HF: Form H  :       0.00u       0.00s   0.017554w      3 calls
HF: Form S/X:       0.02u       0.00s   0.002371w      3 calls
HF: Guess   :       0.28u       0.00s   0.243227w      3 calls
SAD Guess   :       0.28u       0.00s   0.223299w      3 calls
JK: D       :       0.00u       0.00s   0.000404w     46 calls
JK: USO2AO  :       0.00u       0.00s   0.000766w     46 calls
JK: JK      :       0.00u       0.00s   0.004972w     46 calls
JK: J       :       0.00u       0.00s   0.000666w     37 calls
JK: J1      :       0.00u       0.00s   0.000273w     58 calls
JK: J2      :       0.00u       0.00s   0.000172w     58 calls
JK: K       :       0.00u       0.00s   0.002853w     37 calls
JK: K1      :       0.00u       0.00s   0.002088w     52 calls
JK: K2      :       0.00u       0.00s   0.000565w     52 calls
JK: AO2USO  :       0.00u       0.00s   0.000299w     46 calls
DIISManager::add_entry:       0.00u       0.00s   0.013565w     43 calls
DIISManager::extrapolate:       0.00u       0.00s   0.002025w     40 calls
DIISManager::extrapolate: bMatrix setup:       0.00u       0.00s   0.000586w     40 calls
DIISManager::extrapolate: bMatrix pseudoinverse:       0.00u       0.00s   0.000652w     40 calls
DIISManager::extrapolate: form new data:       0.00u       0.00s   0.000536w     40 calls
HF: Form G  :       0.00u       0.00s   0.005160w     25 calls
HF: Form F  :       0.00u       0.00s   0.000061w     25 calls
HF: DIIS    :       0.00u       0.00s   0.015554w     25 calls
HF: Form C  :       0.00u       0.00s   0.001292w     25 calls
HF: Form D  :       0.00u       0.00s   0.000172w     25 calls
Total PK formation time:       0.05u       0.00s 0.04386400w      1 call
PK computes JK:       0.00u       0.00s   0.000659w      9 calls
A->Wmnij    :       0.00u       0.00s   0.000197w      9 calls
E->Wmnij    :       0.00u       0.00s   0.000865w      9 calls
D->Wmnij    :       0.00u       0.00s   0.000889w      9 calls
DFMP2 Singles:       0.00u       0.00s 0.00007000w      1 call
DFMP2 Aia   :       0.03u       0.02s 0.02295400w      1 call
DFMP2 (A|mn):       0.00u       0.00s 0.00240300w      1 call
DFMP2 (A|mn)C_mi:       0.00u       0.00s 0.00020600w      1 call
DFMP2 (A|mi)C_na:       0.00u       0.00s 0.00002400w      1 call
DFMP2 Aia Write:       0.00u       0.00s 0.00044200w      1 call
DFMP2 Qia   :       0.02u       0.00s 0.01364000w      1 call
DFMP2 Metric:       0.02u       0.00s 0.01201900w      1 call
DFMP2 Aia Read:       0.00u       0.00s 0.00018500w      1 call
DFMP2 (Q|A)(A|ia):       0.00u       0.00s 0.00005900w      1 call
DFMP2 Qia Write:       0.00u       0.00s 0.00008600w      1 call
DFMP2 Energy:       0.00u       0.00s 0.00116900w      1 call
DFMP2 Qia Read:       0.00u       0.00s   0.000028w      2 calls

***********************************************************

Host: Benedictes-MacBook-Pro.local

Timers On : Wed Nov 25 23:05:07 2020
Timers Off: Wed Nov 25 23:05:09 2020

Wall Time:        2.00 seconds

JK: (A|mn)  :       0.02u       0.00s   0.012848w      8 calls
JK: (A|Q)^-1/2:       0.08u       0.00s   0.062981w      8 calls
JK: (Q|mn)  :       0.00u       0.00s   0.000236w      8 calls
HF: Form H  :       0.00u       0.02s   0.006128w      3 calls
HF: Form S/X:       0.00u       0.00s   0.000320w      3 calls
HF: Guess   :       0.25u       0.02s   0.158214w      3 calls
SAD Guess   :       0.25u       0.02s   0.151823w      3 calls
JK: D       :       0.00u       0.00s   0.000281w     46 calls
JK: USO2AO  :       0.00u       0.00s   0.000431w     46 calls
JK: JK      :       0.03u       0.02s   0.003704w     46 calls
JK: J       :       0.00u       0.02s   0.000527w     37 calls
JK: J1      :       0.00u       0.00s   0.000185w     58 calls
JK: J2      :       0.00u       0.02s   0.000138w     58 calls
JK: K       :       0.03u       0.00s   0.002222w     37 calls
JK: K1      :       0.03u       0.00s   0.001693w     52 calls
JK: K2      :       0.00u       0.00s   0.000346w     52 calls
JK: AO2USO  :       0.00u       0.00s   0.000265w     46 calls
DIISManager::add_entry:       0.00u       0.00s   0.002364w     43 calls
DIISManager::extrapolate:       0.00u       0.00s   0.001708w     40 calls
DIISManager::extrapolate: bMatrix setup:       0.00u       0.00s   0.000491w     40 calls
DIISManager::extrapolate: bMatrix pseudoinverse:       0.00u       0.00s   0.000492w     40 calls
DIISManager::extrapolate: form new data:       0.00u       0.00s   0.000449w     40 calls
HF: Form G  :       0.03u       0.00s   0.003506w     25 calls
HF: Form F  :       0.00u       0.00s   0.000051w     25 calls
HF: DIIS    :       0.00u       0.00s   0.004139w     25 calls
HF: Form C  :       0.00u       0.00s   0.001044w     25 calls
HF: Form D  :       0.00u       0.00s   0.000128w     25 calls
Total PK formation time:       0.03u       0.00s 0.02096100w      1 call
PK computes JK:       0.00u       0.00s   0.000395w      9 calls
A->Wmnij    :       0.00u       0.00s   0.000218w      9 calls
E->Wmnij    :       0.00u       0.00s   0.000750w      9 calls
D->Wmnij    :       0.00u       0.00s   0.001494w      9 calls
DFMP2 Singles:       0.00u       0.00s 0.00009000w      1 call
DFMP2 Aia   :       0.03u       0.00s 0.01822000w      1 call
DFMP2 (A|mn):       0.00u       0.00s 0.00177300w      1 call
DFMP2 (A|mn)C_mi:       0.00u       0.00s 0.00020800w      1 call
DFMP2 (A|mi)C_na:       0.00u       0.00s 0.00002200w      1 call
DFMP2 Aia Write:       0.00u       0.00s 0.00009600w      1 call
DFMP2 Qia   :       0.02u       0.00s 0.01056700w      1 call
DFMP2 Metric:       0.02u       0.00s 0.00961000w      1 call
DFMP2 Aia Read:       0.00u       0.00s 0.00012600w      1 call
DFMP2 (Q|A)(A|ia):       0.00u       0.00s 0.00002800w      1 call
DFMP2 Qia Write:       0.00u       0.00s 0.00005600w      1 call
DFMP2 Energy:       0.00u       0.00s 0.00078600w      1 call
DFMP2 Qia Read:       0.00u       0.00s   0.000029w      2 calls

***********************************************************

Host: Benedictes-MacBook-Pro.local

Timers On : Wed Nov 25 23:05:43 2020
Timers Off: Wed Nov 25 23:05:44 2020

Wall Time:        1.00 seconds

JK: (A|mn)  :       0.03u       0.00s   0.012582w      8 calls
JK: (A|Q)^-1/2:       0.13u       0.00s   0.064099w      8 calls
JK: (Q|mn)  :       0.00u       0.00s   0.000253w      8 calls
HF: Form H  :       0.00u       0.02s   0.006381w      3 calls
HF: Form S/X:       0.00u       0.00s   0.000347w      3 calls
HF: Guess   :       0.25u       0.00s   0.163266w      3 calls
SAD Guess   :       0.25u       0.00s   0.156456w      3 calls
JK: D       :       0.00u       0.00s   0.000385w     46 calls
JK: USO2AO  :       0.00u       0.00s   0.000695w     46 calls
JK: JK      :       0.00u       0.00s   0.007167w     46 calls
JK: J       :       0.00u       0.00s   0.001109w     37 calls
JK: J1      :       0.00u       0.00s   0.000427w     58 calls
JK: J2      :       0.00u       0.00s   0.000410w     58 calls
JK: K       :       0.00u       0.00s   0.004579w     37 calls
JK: K1      :       0.00u       0.00s   0.003631w     52 calls
JK: K2      :       0.00u       0.00s   0.000699w     52 calls
JK: AO2USO  :       0.00u       0.00s   0.000525w     46 calls
DIISManager::add_entry:       0.00u       0.02s   0.003539w     43 calls
DIISManager::extrapolate:       0.02u       0.00s   0.002500w     40 calls
DIISManager::extrapolate: bMatrix setup:       0.02u       0.00s   0.000763w     40 calls
DIISManager::extrapolate: bMatrix pseudoinverse:       0.00u       0.00s   0.000869w     40 calls
DIISManager::extrapolate: form new data:       0.00u       0.00s   0.000579w     40 calls
HF: Form G  :       0.00u       0.00s   0.007356w     25 calls
HF: Form F  :       0.00u       0.00s   0.000067w     25 calls
HF: DIIS    :       0.02u       0.02s   0.006122w     25 calls
HF: Form C  :       0.00u       0.00s   0.001283w     25 calls
HF: Form D  :       0.00u       0.00s   0.000218w     25 calls
Total PK formation time:       0.03u       0.00s 0.02090900w      1 call
PK computes JK:       0.00u       0.00s   0.000547w      9 calls
A->Wmnij    :       0.00u       0.00s   0.000207w      9 calls
E->Wmnij    :       0.00u       0.02s   0.000723w      9 calls
D->Wmnij    :       0.00u       0.02s   0.001098w      9 calls
DFMP2 Singles:       0.00u       0.00s 0.00008200w      1 call
DFMP2 Aia   :       0.02u       0.00s 0.01647900w      1 call
DFMP2 (A|mn):       0.00u       0.00s 0.00166000w      1 call
DFMP2 (A|mn)C_mi:       0.00u       0.00s 0.00015500w      1 call
DFMP2 (A|mi)C_na:       0.00u       0.00s 0.00001300w      1 call
DFMP2 Aia Write:       0.00u       0.00s 0.00004700w      1 call
DFMP2 Qia   :       0.02u       0.00s 0.00968100w      1 call
DFMP2 Metric:       0.02u       0.00s 0.00894200w      1 call
DFMP2 Aia Read:       0.00u       0.00s 0.00011900w      1 call
DFMP2 (Q|A)(A|ia):       0.00u       0.00s 0.00002400w      1 call
DFMP2 Qia Write:       0.00u       0.00s 0.00004000w      1 call
DFMP2 Energy:       0.00u       0.00s 0.00054900w      1 call
DFMP2 Qia Read:       0.00u       0.00s   0.000014w      2 calls

***********************************************************

Host: Benedictes-MacBook-Pro.local

Timers On : Wed Nov 25 23:09:10 2020
Timers Off: Wed Nov 25 23:09:12 2020

Wall Time:        2.00 seconds

JK: (A|mn)  :       0.02u       0.00s   0.013642w      8 calls
JK: (A|Q)^-1/2:       0.12u       0.00s   0.066961w      8 calls
JK: (Q|mn)  :       0.00u       0.00s   0.000400w      8 calls
HF: Form H  :       0.00u       0.00s   0.009277w      3 calls
HF: Form S/X:       0.00u       0.00s   0.000447w      3 calls
HF: Guess   :       0.27u       0.00s   0.159817w      3 calls
SAD Guess   :       0.27u       0.00s   0.153501w      3 calls
JK: D       :       0.02u       0.00s   0.000311w     46 calls
JK: USO2AO  :       0.00u       0.00s   0.000479w     46 calls
JK: JK      :       0.00u       0.00s   0.003984w     46 calls
JK: J       :       0.00u       0.00s   0.000533w     37 calls
JK: J1      :       0.00u       0.00s   0.000182w     58 calls
JK: J2      :       0.00u       0.00s   0.000144w     58 calls
JK: K       :       0.00u       0.00s   0.002275w     37 calls
JK: K1      :       0.00u       0.00s   0.001713w     52 calls
JK: K2      :       0.00u       0.00s   0.000374w     52 calls
JK: AO2USO  :       0.00u       0.00s   0.000284w     46 calls
DIISManager::add_entry:       0.00u       0.00s   0.002429w     43 calls
DIISManager::extrapolate:       0.00u       0.00s   0.001878w     40 calls
DIISManager::extrapolate: bMatrix setup:       0.00u       0.00s   0.000520w     40 calls
DIISManager::extrapolate: bMatrix pseudoinverse:       0.00u       0.00s   0.000603w     40 calls
DIISManager::extrapolate: form new data:       0.00u       0.00s   0.000448w     40 calls
HF: Form G  :       0.00u       0.00s   0.003788w     25 calls
HF: Form F  :       0.00u       0.00s   0.000048w     25 calls
HF: DIIS    :       0.00u       0.00s   0.004358w     25 calls
HF: Form C  :       0.00u       0.00s   0.001097w     25 calls
HF: Form D  :       0.00u       0.00s   0.000162w     25 calls
Total PK formation time:       0.05u       0.00s 0.02079300w      1 call
PK computes JK:       0.00u       0.00s   0.000582w      9 calls
A->Wmnij    :       0.00u       0.00s   0.000198w      9 calls
E->Wmnij    :       0.00u       0.00s   0.000709w      9 calls
D->Wmnij    :       0.00u       0.00s   0.001133w      9 calls
DFMP2 Singles:       0.00u       0.00s 0.00008000w      1 call
DFMP2 Aia   :       0.03u       0.00s 0.01679400w      1 call
DFMP2 (A|mn):       0.00u       0.00s 0.00165200w      1 call
DFMP2 (A|mn)C_mi:       0.00u       0.00s 0.00014100w      1 call
DFMP2 (A|mi)C_na:       0.00u       0.00s 0.00001400w      1 call
DFMP2 Aia Write:       0.00u       0.00s 0.00004500w      1 call
DFMP2 Qia   :       0.02u       0.00s 0.00943600w      1 call
DFMP2 Metric:       0.02u       0.00s 0.00871000w      1 call
DFMP2 Aia Read:       0.00u       0.00s 0.00011600w      1 call
DFMP2 (Q|A)(A|ia):       0.00u       0.00s 0.00002300w      1 call
DFMP2 Qia Write:       0.00u       0.00s 0.00004000w      1 call
DFMP2 Energy:       0.00u       0.00s 0.00051700w      1 call
DFMP2 Qia Read:       0.00u       0.00s   0.000014w      2 calls

***********************************************************

Host: Benedictes-MacBook-Pro.local

Timers On : Wed Nov 25 23:09:44 2020
Timers Off: Wed Nov 25 23:09:46 2020

Wall Time:        2.00 seconds

JK: (A|mn)  :       0.02u       0.00s   0.012560w      8 calls
JK: (A|Q)^-1/2:       0.10u       0.00s   0.062410w      8 calls
JK: (Q|mn)  :       0.00u       0.00s   0.000554w      8 calls
HF: Form H  :       0.00u       0.02s   0.007156w      3 calls
HF: Form S/X:       0.00u       0.00s   0.000413w      3 calls
HF: Guess   :       0.27u       0.00s   0.158186w      3 calls
SAD Guess   :       0.25u       0.00s   0.151498w      3 calls
JK: D       :       0.00u       0.00s   0.000329w     46 calls
JK: USO2AO  :       0.00u       0.00s   0.000659w     46 calls
JK: JK      :       0.02u       0.00s   0.005396w     46 calls
JK: J       :       0.02u       0.00s   0.001280w     37 calls
JK: J1      :       0.00u       0.00s   0.000859w     58 calls
JK: J2      :       0.02u       0.00s   0.000199w     58 calls
JK: K       :       0.00u       0.00s   0.002758w     37 calls
JK: K1      :       0.00u       0.00s   0.002082w     52 calls
JK: K2      :       0.00u       0.00s   0.000476w     52 calls
JK: AO2USO  :       0.00u       0.00s   0.000326w     46 calls
DIISManager::add_entry:       0.00u       0.00s   0.004311w     43 calls
DIISManager::extrapolate:       0.00u       0.00s   0.001913w     40 calls
DIISManager::extrapolate: bMatrix setup:       0.00u       0.00s   0.000565w     40 calls
DIISManager::extrapolate: bMatrix pseudoinverse:       0.00u       0.00s   0.000597w     40 calls
DIISManager::extrapolate: form new data:       0.00u       0.00s   0.000471w     40 calls
HF: Form G  :       0.02u       0.00s   0.006166w     25 calls
HF: Form F  :       0.00u       0.00s   0.000061w     25 calls
HF: DIIS    :       0.00u       0.00s   0.006461w     25 calls
HF: Form C  :       0.00u       0.00s   0.001406w     25 calls
HF: Form D  :       0.00u       0.00s   0.000234w     25 calls
Total PK formation time:       0.03u       0.00s 0.02164300w      1 call
PK computes JK:       0.00u       0.00s   0.000586w      9 calls
A->Wmnij    :       0.00u       0.00s   0.000210w      9 calls
E->Wmnij    :       0.00u       0.00s   0.000947w      9 calls
D->Wmnij    :       0.00u       0.00s   0.001330w      9 calls
DFMP2 Singles:       0.00u       0.00s 0.00008600w      1 call
DFMP2 Aia   :       0.03u       0.00s 0.01619600w      1 call
DFMP2 (A|mn):       0.00u       0.00s 0.00166400w      1 call
DFMP2 (A|mn)C_mi:       0.00u       0.00s 0.00015700w      1 call
DFMP2 (A|mi)C_na:       0.00u       0.00s 0.00001300w      1 call
DFMP2 Aia Write:       0.00u       0.00s 0.00004600w      1 call
DFMP2 Qia   :       0.02u       0.00s 0.00941100w      1 call
DFMP2 Metric:       0.02u       0.00s 0.00872600w      1 call
DFMP2 Aia Read:       0.00u       0.00s 0.00011500w      1 call
DFMP2 (Q|A)(A|ia):       0.00u       0.00s 0.00002200w      1 call
DFMP2 Qia Write:       0.00u       0.00s 0.00003900w      1 call
DFMP2 Energy:       0.00u       0.00s 0.00066700w      1 call
DFMP2 Qia Read:       0.00u       0.00s   0.000013w      2 calls

***********************************************************

Host: Benedictes-MacBook-Pro.local

Timers On : Wed Nov 25 23:17:58 2020
Timers Off: Wed Nov 25 23:17:58 2020

Wall Time:        0.00 seconds

JK: (A|mn)  :       0.00u       0.00s   0.005394w      3 calls
JK: (A|Q)^-1/2:       0.05u       0.00s   0.023717w      3 calls
JK: (Q|mn)  :       0.00u       0.00s   0.000104w      3 calls
HF: Form H  :       0.00u       0.00s 0.00178600w      1 call
HF: Form S/X:       0.00u       0.00s 0.00009800w      1 call
HF: Guess   :       0.08u       0.00s 0.05127000w      1 call
SAD Guess   :       0.08u       0.00s 0.04926400w      1 call
JK: D       :       0.00u       0.00s   0.000083w     14 calls
JK: USO2AO  :       0.00u       0.00s   0.000113w     14 calls
JK: JK      :       0.00u       0.00s   0.001146w     14 calls
JK: J       :       0.00u       0.00s   0.000186w     14 calls
JK: J1      :       0.00u       0.00s   0.000067w     21 calls
JK: J2      :       0.00u       0.00s   0.000048w     21 calls
JK: K       :       0.00u       0.00s   0.000767w     14 calls
JK: K1      :       0.00u       0.00s   0.000564w     19 calls
JK: K2      :       0.00u       0.00s   0.000142w     19 calls
JK: AO2USO  :       0.00u       0.00s   0.000062w     14 calls
DIISManager::add_entry:       0.00u       0.00s   0.000659w     13 calls
DIISManager::extrapolate:       0.00u       0.00s   0.000388w     12 calls
DIISManager::extrapolate: bMatrix setup:       0.00u       0.00s   0.000105w     12 calls
DIISManager::extrapolate: bMatrix pseudoinverse:       0.00u       0.00s   0.000122w     12 calls
DIISManager::extrapolate: form new data:       0.00u       0.00s   0.000095w     12 calls
HF: Form G  :       0.00u       0.00s   0.000969w      7 calls
HF: Form F  :       0.00u       0.00s   0.000013w      7 calls
HF: DIIS    :       0.00u       0.00s   0.001008w      7 calls
HF: Form C  :       0.00u       0.00s   0.000266w      7 calls
HF: Form D  :       0.00u       0.00s   0.000030w      7 calls

***********************************************************

[...]
| JK: JK                            :      0.000u      0.000s      0.001w      7 calls
| | DFH: compute_JK()               :      0.000u      0.000s      0.001w      7 calls
| | | DFH: Grabbing AOs             :      0.000u      0.000s      0.000w      7 calls
| | | DFH: compute_J                :      0.000u      0.000s      0.000w      7 calls
| | | DFH: compute_K                :      0.000u      0.000s      0.000w      7 calls
| JK: AO2USO                        :      0.000u      0.000s      0.000w      7 calls
HF: Form F                          :      0.000u      0.000s      0.000w      7 calls
HF: Form D                          :      0.000u      0.000s      0.000w      7 calls
HF: DIIS                            :      0.000u      0.000s      0.004w      6 calls
| DIISManager::add_entry            :      0.000u      0.000s      0.001w      6 calls
| DIISManager::extrapolate          :      0.000u      0.000s      0.000w      6 calls
| | bMatrix setup                   :      0.000u      0.000s      0.000w      6 calls
| | bMatrix pseudoinverse           :      0.000u      0.000s      0.000w      6 calls
| | New vector                      :      0.000u      0.000s      0.000w      6 calls
HF: Form C                          :      0.000u      0.000s      0.000w      6 calls

**************************************************************************************

Host: Benedictes-MacBook-Pro.local

Timers On : Mon Nov 30 14:00:31 2020
Timers Off: Mon Nov 30 14:00:33 2020

Wall Time:        1.90 seconds

                                                       Time (seconds)
Module                                       User      System        Wall        Calls
DFH: sparsity prep                  :      0.017u      0.000s      0.011w      1 calls
DFH: initialize()                   :      0.033u      0.000s      0.029w      1 calls
DFH: AO Construction                :      0.000u      0.000s      0.003w      1 calls
DFH: AO-Met. Contraction            :      0.000u      0.000s      0.000w      1 calls
HF: Form core H                     :      0.000u      0.000s      0.002w      1 calls
HF: Form S/X                        :      0.000u      0.000s      0.000w      1 calls
HF: Guess                           :      0.100u      0.017s      0.058w      1 calls
SAD Guess                           :      0.083u      0.017s      0.056w      1 calls
HF: Form G                          :      0.000u      0.000s      0.001w      7 calls
JK: D                               :      0.000u      0.000s      0.000w      7 calls
JK: USO2AO                          :      0.000u      0.000s      0.000w      7 calls
JK: JK                              :      0.000u      0.000s      0.001w      7 calls
DFH: compute_JK()                   :      0.000u      0.000s      0.001w      7 calls
DFH: Grabbing AOs                   :      0.000u      0.000s      0.000w      7 calls
DFH: compute_J                      :      0.000u      0.000s      0.000w      7 calls
DFH: compute_K                      :      0.000u      0.000s      0.000w      7 calls
JK: AO2USO                          :      0.000u      0.000s      0.000w      7 calls
HF: Form F                          :      0.000u      0.000s      0.000w      7 calls
HF: Form D                          :      0.000u      0.000s      0.000w      7 calls
HF: DIIS                            :      0.000u      0.000s      0.004w      6 calls
DIISManager::add_entry              :      0.000u      0.000s      0.001w      6 calls
DIISManager::extrapolate            :      0.000u      0.000s      0.000w      6 calls
bMatrix setup                       :      0.000u      0.000s      0.000w      6 calls
bMatrix pseudoinverse               :      0.000u      0.000s      0.000w      6 calls
New vector                          :      0.000u      0.000s      0.000w      6 calls
HF: Form C                          :      0.000u      0.000s      0.000w      6 calls

--------------------------------------------------------------------------------------
DFH: sparsity prep                  :      0.017u      0.000s      0.011w      1 calls
DFH: initialize()                   :      0.033u      0.000s      0.029w      1 calls
| DFH: AO Construction              :      0.000u      0.000s      0.003w      1 calls
| DFH: AO-Met. Contraction          :      0.000u      0.000s      0.000w      1 calls
HF: Form core H                     :      0.000u      0.000s      0.002w      1 calls
HF: Form S/X                        :      0.000u      0.000s      0.000w      1 calls
HF: Guess                           :      0.100u      0.017s      0.058w      1 calls
| SAD Guess                         :      0.083u      0.017s      0.056w      1 calls
HF: Form G                          :      0.000u      0.000s      0.001w      7 calls
| JK: D                             :      0.000u      0.000s      0.000w      7 calls
| JK: USO2AO                        :      0.000u      0.000s      0.000w      7 calls
| JK: JK                            :      0.000u      0.000s      0.001w      7 calls
| | DFH: compute_JK()               :      0.000u      0.000s      0.001w      7 calls
| | | DFH: Grabbing AOs             :      0.000u      0.000s      0.000w      7 calls
| | | DFH: compute_J                :      0.000u      0.000s      0.000w      7 calls
| | | DFH: compute_K                :      0.000u      0.000s      0.000w      7 calls
| JK: AO2USO                        :      0.000u      0.000s      0.000w      7 calls
HF: Form F                          :      0.000u      0.000s      0.000w      7 calls
HF: Form D                          :      0.000u      0.000s      0.000w      7 calls
HF: DIIS                            :      0.000u      0.000s      0.004w      6 calls
| DIISManager::add_entry            :      0.000u      0.000s      0.001w      6 calls
| DIISManager::extrapolate          :      0.000u      0.000s      0.000w      6 calls
| | bMatrix setup                   :      0.000u      0.000s      0.000w      6 calls
| | bMatrix pseudoinverse           :      0.000u      0.000s      0.000w      6 calls
| | New vector                      :      0.000u      0.000s      0.000w      6 calls
HF: Form C                          :      0.000u      0.000s      0.000w      6 calls

**************************************************************************************

Host: Benedictes-MacBook-Pro.local

Timers On : Mon Nov 30 14:22:56 2020
Timers Off: Mon Nov 30 14:22:58 2020

Wall Time:        1.97 seconds

                                                       Time (seconds)
Module                                       User      System        Wall        Calls
DFH: sparsity prep                  :      0.017u      0.000s      0.018w      1 calls
DFH: initialize()                   :      0.033u      0.000s      0.032w      1 calls
DFH: AO Construction                :      0.000u      0.000s      0.003w      1 calls
DFH: AO-Met. Contraction            :      0.000u      0.000s      0.000w      1 calls
HF: Form core H                     :      0.000u      0.000s      0.002w      1 calls
HF: Form S/X                        :      0.000u      0.000s      0.000w      1 calls
HF: Guess                           :      0.100u      0.017s      0.065w      1 calls
SAD Guess                           :      0.083u      0.017s      0.062w      1 calls
HF: Form G                          :      0.067u      0.000s      0.036w      9 calls
JK: D                               :      0.000u      0.000s      0.000w      9 calls
JK: USO2AO                          :      0.000u      0.000s      0.000w      9 calls
JK: JK                              :      0.067u      0.000s      0.035w      9 calls
DFH: compute_JK()                   :      0.000u      0.000s      0.001w      7 calls
DFH: Grabbing AOs                   :      0.000u      0.000s      0.000w      7 calls
DFH: compute_J                      :      0.000u      0.000s      0.000w      7 calls
DFH: compute_K                      :      0.000u      0.000s      0.000w      7 calls
JK: AO2USO                          :      0.000u      0.000s      0.000w      9 calls
HF: Form F                          :      0.000u      0.000s      0.000w      9 calls
HF: Form D                          :      0.000u      0.000s      0.000w      9 calls
HF: DIIS                            :      0.017u      0.000s      0.005w      8 calls
DIISManager::add_entry              :      0.000u      0.000s      0.000w      8 calls
DIISManager::extrapolate            :      0.000u      0.000s      0.000w      8 calls
bMatrix setup                       :      0.000u      0.000s      0.000w      8 calls
bMatrix pseudoinverse               :      0.000u      0.000s      0.000w      8 calls
New vector                          :      0.000u      0.000s      0.000w      8 calls
HF: Form C                          :      0.000u      0.000s      0.000w      8 calls

--------------------------------------------------------------------------------------
DFH: sparsity prep                  :      0.017u      0.000s      0.018w      1 calls
DFH: initialize()                   :      0.033u      0.000s      0.032w      1 calls
| DFH: AO Construction              :      0.000u      0.000s      0.003w      1 calls
| DFH: AO-Met. Contraction          :      0.000u      0.000s      0.000w      1 calls
HF: Form core H                     :      0.000u      0.000s      0.002w      1 calls
HF: Form S/X                        :      0.000u      0.000s      0.000w      1 calls
HF: Guess                           :      0.100u      0.017s      0.065w      1 calls
| SAD Guess                         :      0.083u      0.017s      0.062w      1 calls
HF: Form G                          :      0.067u      0.000s      0.036w      9 calls
| JK: D                             :      0.000u      0.000s      0.000w      9 calls
| JK: USO2AO                        :      0.000u      0.000s      0.000w      9 calls
| JK: JK                            :      0.067u      0.000s      0.035w      9 calls
| | DFH: compute_JK()               :      0.000u      0.000s      0.001w      7 calls
| | | DFH: Grabbing AOs             :      0.000u      0.000s      0.000w      7 calls
| | | DFH: compute_J                :      0.000u      0.000s      0.000w      7 calls
| | | DFH: compute_K                :      0.000u      0.000s      0.000w      7 calls
| JK: AO2USO                        :      0.000u      0.000s      0.000w      9 calls
HF: Form F                          :      0.000u      0.000s      0.000w      9 calls
HF: Form D                          :      0.000u      0.000s      0.000w      9 calls
HF: DIIS                            :      0.017u      0.000s      0.005w      8 calls
| DIISManager::add_entry            :      0.000u      0.000s      0.000w      8 calls
| DIISManager::extrapolate          :      0.000u      0.000s      0.000w      8 calls
| | bMatrix setup                   :      0.000u      0.000s      0.000w      8 calls
| | bMatrix pseudoinverse           :      0.000u      0.000s      0.000w      8 calls
| | New vector                      :      0.000u      0.000s      0.000w      8 calls
HF: Form C                          :      0.000u      0.000s      0.000w      8 calls

**************************************************************************************

Host: Benedictes-MacBook-Pro.local

Timers On : Mon Nov 30 14:53:36 2020
Timers Off: Mon Nov 30 14:53:38 2020

Wall Time:        1.95 seconds

                                                       Time (seconds)
Module                                       User      System        Wall        Calls
DFH: sparsity prep                  :      0.017u      0.000s      0.019w      1 calls
DFH: initialize()                   :      0.033u      0.000s      0.030w      1 calls
DFH: AO Construction                :      0.000u      0.000s      0.003w      1 calls
DFH: AO-Met. Contraction            :      0.000u      0.000s      0.001w      1 calls
HF: Form core H                     :      0.000u      0.000s      0.002w      1 calls
HF: Form S/X                        :      0.000u      0.000s      0.000w      1 calls
HF: Guess                           :      0.100u      0.017s      0.064w      1 calls
SAD Guess                           :      0.100u      0.017s      0.061w      1 calls
HF: Form G                          :      0.083u      0.000s      0.038w      9 calls
JK: D                               :      0.000u      0.000s      0.000w      9 calls
JK: USO2AO                          :      0.000u      0.000s      0.000w      9 calls
JK: JK                              :      0.083u      0.000s      0.036w      9 calls
DFH: compute_JK()                   :      0.017u      0.000s      0.001w      7 calls
DFH: Grabbing AOs                   :      0.000u      0.000s      0.000w      7 calls
DFH: compute_J                      :      0.000u      0.000s      0.000w      7 calls
DFH: compute_K                      :      0.017u      0.000s      0.000w      7 calls
JK: AO2USO                          :      0.000u      0.000s      0.000w      9 calls
HF: Form F                          :      0.000u      0.000s      0.000w      9 calls
HF: Form D                          :      0.000u      0.000s      0.000w      9 calls
HF: DIIS                            :      0.000u      0.000s      0.004w      8 calls
DIISManager::add_entry              :      0.000u      0.000s      0.000w      8 calls
DIISManager::extrapolate            :      0.000u      0.000s      0.000w      8 calls
bMatrix setup                       :      0.000u      0.000s      0.000w      8 calls
bMatrix pseudoinverse               :      0.000u      0.000s      0.000w      8 calls
New vector                          :      0.000u      0.000s      0.000w      8 calls
HF: Form C                          :      0.000u      0.000s      0.000w      8 calls

--------------------------------------------------------------------------------------
DFH: sparsity prep                  :      0.017u      0.000s      0.019w      1 calls
DFH: initialize()                   :      0.033u      0.000s      0.030w      1 calls
| DFH: AO Construction              :      0.000u      0.000s      0.003w      1 calls
| DFH: AO-Met. Contraction          :      0.000u      0.000s      0.001w      1 calls
HF: Form core H                     :      0.000u      0.000s      0.002w      1 calls
HF: Form S/X                        :      0.000u      0.000s      0.000w      1 calls
HF: Guess                           :      0.100u      0.017s      0.064w      1 calls
| SAD Guess                         :      0.100u      0.017s      0.061w      1 calls
HF: Form G                          :      0.083u      0.000s      0.038w      9 calls
| JK: D                             :      0.000u      0.000s      0.000w      9 calls
| JK: USO2AO                        :      0.000u      0.000s      0.000w      9 calls
| JK: JK                            :      0.083u      0.000s      0.036w      9 calls
| | DFH: compute_JK()               :      0.017u      0.000s      0.001w      7 calls
| | | DFH: Grabbing AOs             :      0.000u      0.000s      0.000w      7 calls
| | | DFH: compute_J                :      0.000u      0.000s      0.000w      7 calls
| | | DFH: compute_K                :      0.017u      0.000s      0.000w      7 calls
| JK: AO2USO                        :      0.000u      0.000s      0.000w      9 calls
HF: Form F                          :      0.000u      0.000s      0.000w      9 calls
HF: Form D                          :      0.000u      0.000s      0.000w      9 calls
HF: DIIS                            :      0.000u      0.000s      0.004w      8 calls
| DIISManager::add_entry            :      0.000u      0.000s      0.000w      8 calls
| DIISManager::extrapolate          :      0.000u      0.000s      0.000w      8 calls
| | bMatrix setup                   :      0.000u      0.000s      0.000w      8 calls
| | bMatrix pseudoinverse           :      0.000u      0.000s      0.000w      8 calls
| | New vector                      :      0.000u      0.000s      0.000w      8 calls
HF: Form C                          :      0.000u      0.000s      0.000w      8 calls

**************************************************************************************

Host: Benedictes-MacBook-Pro.local

Timers On : Tue Dec  1 10:22:50 2020
Timers Off: Tue Dec  1 10:22:50 2020

Wall Time:        0.00 seconds


***********************************************************

Host: Benedictes-MacBook-Pro.local

Timers On : Tue Dec  1 10:23:04 2020
Timers Off: Tue Dec  1 10:23:05 2020

Wall Time:        1.59 seconds

                                                       Time (seconds)
Module                                       User      System        Wall        Calls

--------------------------------------------------------------------------------------

**************************************************************************************

Host: Benedictes-MacBook-Pro.local

Timers On : Tue Dec  1 10:23:30 2020
Timers Off: Tue Dec  1 10:23:31 2020

Wall Time:        0.87 seconds

                                                       Time (seconds)
Module                                       User      System        Wall        Calls

--------------------------------------------------------------------------------------

**************************************************************************************

Host: Benedictes-MacBook-Pro.local

Timers On : Tue Dec  1 10:23:51 2020
Timers Off: Tue Dec  1 10:23:52 2020

Wall Time:        0.89 seconds

                                                       Time (seconds)
Module                                       User      System        Wall        Calls

--------------------------------------------------------------------------------------

**************************************************************************************

Host: Benedictes-MacBook-Pro.local

Timers On : Tue Dec  1 10:27:20 2020
Timers Off: Tue Dec  1 10:27:22 2020

Wall Time:        1.19 seconds

                                                       Time (seconds)
Module                                       User      System        Wall        Calls

--------------------------------------------------------------------------------------

**************************************************************************************

Host: Benedictes-MacBook-Pro.local

Timers On : Tue Dec  1 10:34:30 2020
Timers Off: Tue Dec  1 10:34:31 2020

Wall Time:        1.27 seconds

                                                       Time (seconds)
Module                                       User      System        Wall        Calls

--------------------------------------------------------------------------------------

**************************************************************************************

Host: Benedictes-MacBook-Pro.local

Timers On : Tue Dec  1 10:37:23 2020
Timers Off: Tue Dec  1 10:37:25 2020

Wall Time:        1.16 seconds

                                                       Time (seconds)
Module                                       User      System        Wall        Calls

--------------------------------------------------------------------------------------

**************************************************************************************

Host: Benedictes-MacBook-Pro.local

Timers On : Tue Dec  1 10:45:40 2020
Timers Off: Tue Dec  1 10:45:42 2020

Wall Time:        2.31 seconds

                                                       Time (seconds)
Module                                       User      System        Wall        Calls

--------------------------------------------------------------------------------------

**************************************************************************************
